 Entering Gaussian System, Link 0=g09
 Input=H2Pc_2X_40.gjf
 Output=H2Pc_2X_40.log
 Initial command:
 /opt/g09/l1.exe "/home/sergey/scratch/Gau-774650.inp" -scrdir="/home/sergey/scratch/"
 Entering Link 1 = /opt/g09/l1.exe PID=    774652.
  
 Copyright (c) 1988,1990,1992,1993,1995,1998,2003,2009,2015,
            Gaussian, Inc.  All Rights Reserved.
  
 This is part of the Gaussian(R) 09 program.  It is based on
 the Gaussian(R) 03 system (copyright 2003, Gaussian, Inc.),
 the Gaussian(R) 98 system (copyright 1998, Gaussian, Inc.),
 the Gaussian(R) 94 system (copyright 1995, Gaussian, Inc.),
 the Gaussian 92(TM) system (copyright 1992, Gaussian, Inc.),
 the Gaussian 90(TM) system (copyright 1990, Gaussian, Inc.),
 the Gaussian 88(TM) system (copyright 1988, Gaussian, Inc.),
 the Gaussian 86(TM) system (copyright 1986, Carnegie Mellon
 University), and the Gaussian 82(TM) system (copyright 1983,
 Carnegie Mellon University). Gaussian is a federally registered
 trademark of Gaussian, Inc.
  
 This software contains proprietary and confidential information,
 including trade secrets, belonging to Gaussian, Inc.
  
 This software is provided under written license and may be
 used, copied, transmitted, or stored only in accord with that
 written license.
  
 The following legend is applicable only to US Government
 contracts under FAR:
  
                    RESTRICTED RIGHTS LEGEND
  
 Use, reproduction and disclosure by the US Government is
 subject to restrictions as set forth in subparagraphs (a)
 and (c) of the Commercial Computer Software - Restricted
 Rights clause in FAR 52.227-19.
  
 Gaussian, Inc.
 340 Quinnipiac St., Bldg. 40, Wallingford CT 06492
  
  
 ---------------------------------------------------------------
 Warning -- This program may not be used in any manner that
 competes with the business of Gaussian, Inc. or will provide
 assistance to any competitor of Gaussian, Inc.  The licensee
 of this program is prohibited from giving any competitor of
 Gaussian, Inc. access to this program.  By using this program,
 the user acknowledges that Gaussian, Inc. is engaged in the
 business of creating and licensing software in the field of
 computational chemistry and represents and warrants to the
 licensee that it is not a competitor of Gaussian, Inc. and that
 it will not use this program in any manner prohibited above.
 ---------------------------------------------------------------
  

 Cite this work as:
 Gaussian 09, Revision E.01,
 M. J. Frisch, G. W. Trucks, H. B. Schlegel, G. E. Scuseria, 
 M. A. Robb, J. R. Cheeseman, G. Scalmani, V. Barone, B. Mennucci, 
 G. A. Petersson, H. Nakatsuji, M. Caricato, X. Li, H. P. Hratchian, 
 A. F. Izmaylov, J. Bloino, G. Zheng, J. L. Sonnenberg, M. Hada, 
 M. Ehara, K. Toyota, R. Fukuda, J. Hasegawa, M. Ishida, T. Nakajima, 
 Y. Honda, O. Kitao, H. Nakai, T. Vreven, J. A. Montgomery, Jr., 
 J. E. Peralta, F. Ogliaro, M. Bearpark, J. J. Heyd, E. Brothers, 
 K. N. Kudin, V. N. Staroverov, T. Keith, R. Kobayashi, J. Normand, 
 K. Raghavachari, A. Rendell, J. C. Burant, S. S. Iyengar, J. Tomasi, 
 M. Cossi, N. Rega, J. M. Millam, M. Klene, J. E. Knox, J. B. Cross, 
 V. Bakken, C. Adamo, J. Jaramillo, R. Gomperts, R. E. Stratmann, 
 O. Yazyev, A. J. Austin, R. Cammi, C. Pomelli, J. W. Ochterski, 
 R. L. Martin, K. Morokuma, V. G. Zakrzewski, G. A. Voth, 
 P. Salvador, J. J. Dannenberg, S. Dapprich, A. D. Daniels, 
 O. Farkas, J. B. Foresman, J. V. Ortiz, J. Cioslowski, 
 and D. J. Fox, Gaussian, Inc., Wallingford CT, 2013.
 
 ******************************************
 Gaussian 09:  ES64L-G09RevE.01 30-Nov-2015
                15-May-2025 
 ******************************************
 %chk=H2Pc_2X_40.chk
 %nprocshared=8
 Will use up to    8 processors via shared memory.
 %mem=16GB
 Default route:  MaxDisk=100GW
 ----------------------------------------------------------
 #p lc-blyp/def2svp iop(3/107=0400000000, 3/108=0400000000)
 ----------------------------------------------------------
 1/38=1/1;
 2/12=2,17=6,18=5,40=1/2;
 3/5=43,7=101,11=2,16=1,25=1,30=1,74=1000402,107=400000000,108=400000000/1,2,3;
 4//1;
 5/5=2,38=5/2;
 6/7=2,8=2,9=2,10=2,28=1/1;
 99/5=1,9=1/99;
 Leave Link    1 at Thu May 15 16:26:57 2025, MaxMem=  2147483648 cpu:         0.1
 (Enter /opt/g09/l101.exe)
 -----------------------------------
 H2Pc dimer, monomer geom b3pw/631dp
 -----------------------------------
 Symbolic Z-matrix:
 Charge =  0 Multiplicity = 1
 C                     6.54288   0.70167   0. 
 C                     6.54288  -0.70167   0. 
 C                     5.34964   1.42349   0. 
 C                     4.16143   0.7006    0. 
 C                     4.16143  -0.7006    0. 
 C                     5.34964  -1.42349   0. 
 C                     2.75132   1.09343   0. 
 C                     2.75132  -1.09343   0. 
 N                     1.93971   0.        0. 
 N                     2.39196  -2.37706   0. 
 N                     2.39196   2.37706   0. 
 H                     7.49104   1.23209   0. 
 H                     7.49104  -1.23209   0. 
 H                     5.34047   2.50884   0. 
 H                     5.34047  -2.50884   0. 
 C                    -0.70389   6.55013   0. 
 C                     0.70389   6.55013   0. 
 C                    -1.42467   5.36251   0. 
 C                    -0.70522   4.1671    0. 
 C                     0.70522   4.1671    0. 
 C                     1.42467   5.36251   0. 
 C                    -1.1415    2.78429   0. 
 C                     1.1415    2.78429   0. 
 N                     0.        2.02129   0. 
 N                    -2.39196   2.37706   0. 
 H                    -1.23321   7.49862   0. 
 H                     1.23321   7.49862   0. 
 H                    -2.50969   5.35195   0. 
 H                     2.50969   5.35195   0. 
 C                     0.70389  -6.55013   0. 
 C                    -0.70389  -6.55013   0. 
 C                     1.42467  -5.36251   0. 
 C                     0.70522  -4.1671    0. 
 C                    -0.70522  -4.1671    0. 
 C                    -1.42467  -5.36251   0. 
 C                     1.1415   -2.78429   0. 
 C                    -1.1415   -2.78429   0. 
 N                     0.       -2.02129   0. 
 N                    -2.39196  -2.37706   0. 
 H                     1.23321  -7.49862   0. 
 H                    -1.23321  -7.49862   0. 
 H                     2.50969  -5.35195   0. 
 H                    -2.50969  -5.35195   0. 
 C                    -6.54288  -0.70167   0. 
 C                    -6.54288   0.70167   0. 
 C                    -5.34964  -1.42349   0. 
 C                    -4.16143  -0.7006    0. 
 C                    -4.16143   0.7006    0. 
 C                    -5.34964   1.42349   0. 
 C                    -2.75132  -1.09343   0. 
 C                    -2.75132   1.09343   0. 
 N                    -1.93971   0.        0. 
 H                    -7.49104  -1.23209   0. 
 H                    -7.49104   1.23209   0. 
 H                    -5.34047  -2.50884   0. 
 H                    -5.34047   2.50884   0. 
 H                     0.        1.00698   0. 
 H                     0.       -1.00698   0. 
 C                     0.70167   6.54288   4. 
 C                    -0.70167   6.54288   4. 
 C                     1.42349   5.34964   4. 
 C                     0.7006    4.16143   4. 
 C                    -0.7006    4.16143   4. 
 C                    -1.42349   5.34964   4. 
 C                     1.09343   2.75132   4. 
 C                    -1.09343   2.75132   4. 
 N                     0.        1.93971   4. 
 N                    -2.37706   2.39196   4. 
 N                     2.37706   2.39196   4. 
 H                     1.23209   7.49104   4. 
 H                    -1.23209   7.49104   4. 
 H                     2.50884   5.34047   4. 
 H                    -2.50884   5.34047   4. 
 C                     6.55013  -0.70389   4. 
 C                     6.55013   0.70389   4. 
 C                     5.36251  -1.42467   4. 
 C                     4.1671   -0.70522   4. 
 C                     4.1671    0.70522   4. 
 C                     5.36251   1.42467   4. 
 C                     2.78429  -1.1415    4. 
 C                     2.78429   1.1415    4. 
 N                     2.02129   0.        4. 
 N                     2.37706  -2.39196   4. 
 H                     7.49862  -1.23321   4. 
 H                     7.49862   1.23321   4. 
 H                     5.35195  -2.50969   4. 
 H                     5.35195   2.50969   4. 
 C                    -6.55013   0.70389   4. 
 C                    -6.55013  -0.70389   4. 
 C                    -5.36251   1.42467   4. 
 C                    -4.1671    0.70522   4. 
 C                    -4.1671   -0.70522   4. 
 C                    -5.36251  -1.42467   4. 
 C                    -2.78429   1.1415    4. 
 C                    -2.78429  -1.1415    4. 
 N                    -2.02129   0.        4. 
 N                    -2.37706  -2.39196   4. 
 H                    -7.49862   1.23321   4. 
 H                    -7.49862  -1.23321   4. 
 H                    -5.35195   2.50969   4. 
 H                    -5.35195  -2.50969   4. 
 C                    -0.70167  -6.54288   4. 
 C                     0.70167  -6.54288   4. 
 C                    -1.42349  -5.34964   4. 
 C                    -0.7006   -4.16143   4. 
 C                     0.7006   -4.16143   4. 
 C                     1.42349  -5.34964   4. 
 C                    -1.09343  -2.75132   4. 
 C                     1.09343  -2.75132   4. 
 N                     0.       -1.93971   4. 
 H                    -1.23209  -7.49104   4. 
 H                     1.23209  -7.49104   4. 
 H                    -2.50884  -5.34047   4. 
 H                     2.50884  -5.34047   4. 
 H                     1.00698   0.        4. 
 H                    -1.00698   0.        4. 
 
 NAtoms=    116 NQM=      116 NQMF=       0 NMMI=      0 NMMIF=      0
                NMic=       0 NMicF=      0.
                    Isotopes and Nuclear Properties:
 (Nuclear quadrupole moments (NQMom) in fm**2, nuclear magnetic moments (NMagM)
  in nuclear magnetons)

  Atom         1           2           3           4           5           6           7           8           9          10
 IAtWgt=          12          12          12          12          12          12          12          12          14          14
 AtmWgt=  12.0000000  12.0000000  12.0000000  12.0000000  12.0000000  12.0000000  12.0000000  12.0000000  14.0030740  14.0030740
 NucSpn=           0           0           0           0           0           0           0           0           2           2
 AtZEff=   0.0000000   0.0000000   0.0000000   0.0000000   0.0000000   0.0000000   0.0000000   0.0000000   0.0000000   0.0000000
 NQMom=    0.0000000   0.0000000   0.0000000   0.0000000   0.0000000   0.0000000   0.0000000   0.0000000   2.0440000   2.0440000
 NMagM=    0.0000000   0.0000000   0.0000000   0.0000000   0.0000000   0.0000000   0.0000000   0.0000000   0.4037610   0.4037610
 AtZNuc=   6.0000000   6.0000000   6.0000000   6.0000000   6.0000000   6.0000000   6.0000000   6.0000000   7.0000000   7.0000000

  Atom        11          12          13          14          15          16          17          18          19          20
 IAtWgt=          14           1           1           1           1          12          12          12          12          12
 AtmWgt=  14.0030740   1.0078250   1.0078250   1.0078250   1.0078250  12.0000000  12.0000000  12.0000000  12.0000000  12.0000000
 NucSpn=           2           1           1           1           1           0           0           0           0           0
 AtZEff=   0.0000000   0.0000000   0.0000000   0.0000000   0.0000000   0.0000000   0.0000000   0.0000000   0.0000000   0.0000000
 NQMom=    2.0440000   0.0000000   0.0000000   0.0000000   0.0000000   0.0000000   0.0000000   0.0000000   0.0000000   0.0000000
 NMagM=    0.4037610   2.7928460   2.7928460   2.7928460   2.7928460   0.0000000   0.0000000   0.0000000   0.0000000   0.0000000
 AtZNuc=   7.0000000   1.0000000   1.0000000   1.0000000   1.0000000   6.0000000   6.0000000   6.0000000   6.0000000   6.0000000

  Atom        21          22          23          24          25          26          27          28          29          30
 IAtWgt=          12          12          12          14          14           1           1           1           1          12
 AtmWgt=  12.0000000  12.0000000  12.0000000  14.0030740  14.0030740   1.0078250   1.0078250   1.0078250   1.0078250  12.0000000
 NucSpn=           0           0           0           2           2           1           1           1           1           0
 AtZEff=   0.0000000   0.0000000   0.0000000   0.0000000   0.0000000   0.0000000   0.0000000   0.0000000   0.0000000   0.0000000
 NQMom=    0.0000000   0.0000000   0.0000000   2.0440000   2.0440000   0.0000000   0.0000000   0.0000000   0.0000000   0.0000000
 NMagM=    0.0000000   0.0000000   0.0000000   0.4037610   0.4037610   2.7928460   2.7928460   2.7928460   2.7928460   0.0000000
 AtZNuc=   6.0000000   6.0000000   6.0000000   7.0000000   7.0000000   1.0000000   1.0000000   1.0000000   1.0000000   6.0000000

  Atom        31          32          33          34          35          36          37          38          39          40
 IAtWgt=          12          12          12          12          12          12          12          14          14           1
 AtmWgt=  12.0000000  12.0000000  12.0000000  12.0000000  12.0000000  12.0000000  12.0000000  14.0030740  14.0030740   1.0078250
 NucSpn=           0           0           0           0           0           0           0           2           2           1
 AtZEff=   0.0000000   0.0000000   0.0000000   0.0000000   0.0000000   0.0000000   0.0000000   0.0000000   0.0000000   0.0000000
 NQMom=    0.0000000   0.0000000   0.0000000   0.0000000   0.0000000   0.0000000   0.0000000   2.0440000   2.0440000   0.0000000
 NMagM=    0.0000000   0.0000000   0.0000000   0.0000000   0.0000000   0.0000000   0.0000000   0.4037610   0.4037610   2.7928460
 AtZNuc=   6.0000000   6.0000000   6.0000000   6.0000000   6.0000000   6.0000000   6.0000000   7.0000000   7.0000000   1.0000000

  Atom        41          42          43          44          45          46          47          48          49          50
 IAtWgt=           1           1           1          12          12          12          12          12          12          12
 AtmWgt=   1.0078250   1.0078250   1.0078250  12.0000000  12.0000000  12.0000000  12.0000000  12.0000000  12.0000000  12.0000000
 NucSpn=           1           1           1           0           0           0           0           0           0           0
 AtZEff=   0.0000000   0.0000000   0.0000000   0.0000000   0.0000000   0.0000000   0.0000000   0.0000000   0.0000000   0.0000000
 NQMom=    0.0000000   0.0000000   0.0000000   0.0000000   0.0000000   0.0000000   0.0000000   0.0000000   0.0000000   0.0000000
 NMagM=    2.7928460   2.7928460   2.7928460   0.0000000   0.0000000   0.0000000   0.0000000   0.0000000   0.0000000   0.0000000
 AtZNuc=   1.0000000   1.0000000   1.0000000   6.0000000   6.0000000   6.0000000   6.0000000   6.0000000   6.0000000   6.0000000

  Atom        51          52          53          54          55          56          57          58          59          60
 IAtWgt=          12          14           1           1           1           1           1           1          12          12
 AtmWgt=  12.0000000  14.0030740   1.0078250   1.0078250   1.0078250   1.0078250   1.0078250   1.0078250  12.0000000  12.0000000
 NucSpn=           0           2           1           1           1           1           1           1           0           0
 AtZEff=   0.0000000   0.0000000   0.0000000   0.0000000   0.0000000   0.0000000   0.0000000   0.0000000   0.0000000   0.0000000
 NQMom=    0.0000000   2.0440000   0.0000000   0.0000000   0.0000000   0.0000000   0.0000000   0.0000000   0.0000000   0.0000000
 NMagM=    0.0000000   0.4037610   2.7928460   2.7928460   2.7928460   2.7928460   2.7928460   2.7928460   0.0000000   0.0000000
 AtZNuc=   6.0000000   7.0000000   1.0000000   1.0000000   1.0000000   1.0000000   1.0000000   1.0000000   6.0000000   6.0000000

  Atom        61          62          63          64          65          66          67          68          69          70
 IAtWgt=          12          12          12          12          12          12          14          14          14           1
 AtmWgt=  12.0000000  12.0000000  12.0000000  12.0000000  12.0000000  12.0000000  14.0030740  14.0030740  14.0030740   1.0078250
 NucSpn=           0           0           0           0           0           0           2           2           2           1
 AtZEff=   0.0000000   0.0000000   0.0000000   0.0000000   0.0000000   0.0000000   0.0000000   0.0000000   0.0000000   0.0000000
 NQMom=    0.0000000   0.0000000   0.0000000   0.0000000   0.0000000   0.0000000   2.0440000   2.0440000   2.0440000   0.0000000
 NMagM=    0.0000000   0.0000000   0.0000000   0.0000000   0.0000000   0.0000000   0.4037610   0.4037610   0.4037610   2.7928460
 AtZNuc=   6.0000000   6.0000000   6.0000000   6.0000000   6.0000000   6.0000000   7.0000000   7.0000000   7.0000000   1.0000000

  Atom        71          72          73          74          75          76          77          78          79          80
 IAtWgt=           1           1           1          12          12          12          12          12          12          12
 AtmWgt=   1.0078250   1.0078250   1.0078250  12.0000000  12.0000000  12.0000000  12.0000000  12.0000000  12.0000000  12.0000000
 NucSpn=           1           1           1           0           0           0           0           0           0           0
 AtZEff=   0.0000000   0.0000000   0.0000000   0.0000000   0.0000000   0.0000000   0.0000000   0.0000000   0.0000000   0.0000000
 NQMom=    0.0000000   0.0000000   0.0000000   0.0000000   0.0000000   0.0000000   0.0000000   0.0000000   0.0000000   0.0000000
 NMagM=    2.7928460   2.7928460   2.7928460   0.0000000   0.0000000   0.0000000   0.0000000   0.0000000   0.0000000   0.0000000
 AtZNuc=   1.0000000   1.0000000   1.0000000   6.0000000   6.0000000   6.0000000   6.0000000   6.0000000   6.0000000   6.0000000

  Atom        81          82          83          84          85          86          87          88          89          90
 IAtWgt=          12          14          14           1           1           1           1          12          12          12
 AtmWgt=  12.0000000  14.0030740  14.0030740   1.0078250   1.0078250   1.0078250   1.0078250  12.0000000  12.0000000  12.0000000
 NucSpn=           0           2           2           1           1           1           1           0           0           0
 AtZEff=   0.0000000   0.0000000   0.0000000   0.0000000   0.0000000   0.0000000   0.0000000   0.0000000   0.0000000   0.0000000
 NQMom=    0.0000000   2.0440000   2.0440000   0.0000000   0.0000000   0.0000000   0.0000000   0.0000000   0.0000000   0.0000000
 NMagM=    0.0000000   0.4037610   0.4037610   2.7928460   2.7928460   2.7928460   2.7928460   0.0000000   0.0000000   0.0000000
 AtZNuc=   6.0000000   7.0000000   7.0000000   1.0000000   1.0000000   1.0000000   1.0000000   6.0000000   6.0000000   6.0000000

  Atom        91          92          93          94          95          96          97          98          99         100
 IAtWgt=          12          12          12          12          12          14          14           1           1           1
 AtmWgt=  12.0000000  12.0000000  12.0000000  12.0000000  12.0000000  14.0030740  14.0030740   1.0078250   1.0078250   1.0078250
 NucSpn=           0           0           0           0           0           2           2           1           1           1
 AtZEff=   0.0000000   0.0000000   0.0000000   0.0000000   0.0000000   0.0000000   0.0000000   0.0000000   0.0000000   0.0000000
 NQMom=    0.0000000   0.0000000   0.0000000   0.0000000   0.0000000   2.0440000   2.0440000   0.0000000   0.0000000   0.0000000
 NMagM=    0.0000000   0.0000000   0.0000000   0.0000000   0.0000000   0.4037610   0.4037610   2.7928460   2.7928460   2.7928460
 AtZNuc=   6.0000000   6.0000000   6.0000000   6.0000000   6.0000000   7.0000000   7.0000000   1.0000000   1.0000000   1.0000000

  Atom       101         102         103         104         105         106         107         108         109         110
 IAtWgt=           1          12          12          12          12          12          12          12          12          14
 AtmWgt=   1.0078250  12.0000000  12.0000000  12.0000000  12.0000000  12.0000000  12.0000000  12.0000000  12.0000000  14.0030740
 NucSpn=           1           0           0           0           0           0           0           0           0           2
 AtZEff=   0.0000000   0.0000000   0.0000000   0.0000000   0.0000000   0.0000000   0.0000000   0.0000000   0.0000000   0.0000000
 NQMom=    0.0000000   0.0000000   0.0000000   0.0000000   0.0000000   0.0000000   0.0000000   0.0000000   0.0000000   2.0440000
 NMagM=    2.7928460   0.0000000   0.0000000   0.0000000   0.0000000   0.0000000   0.0000000   0.0000000   0.0000000   0.4037610
 AtZNuc=   1.0000000   6.0000000   6.0000000   6.0000000   6.0000000   6.0000000   6.0000000   6.0000000   6.0000000   7.0000000

  Atom       111         112         113         114         115         116
 IAtWgt=           1           1           1           1           1           1
 AtmWgt=   1.0078250   1.0078250   1.0078250   1.0078250   1.0078250   1.0078250
 NucSpn=           1           1           1           1           1           1
 AtZEff=   0.0000000   0.0000000   0.0000000   0.0000000   0.0000000   0.0000000
 NQMom=    0.0000000   0.0000000   0.0000000   0.0000000   0.0000000   0.0000000
 NMagM=    2.7928460   2.7928460   2.7928460   2.7928460   2.7928460   2.7928460
 AtZNuc=   1.0000000   1.0000000   1.0000000   1.0000000   1.0000000   1.0000000
 Leave Link  101 at Thu May 15 16:26:57 2025, MaxMem=  2147483648 cpu:         0.5
 (Enter /opt/g09/l202.exe)
 Stoichiometry    C64H36N16
 Framework group  D2D[2SGD(H2N4),X(C64H32N8)]
 Deg. of freedom    45
 Full point group                 D2D     NOp   8
 Largest Abelian subgroup         C2V     NOp   4
 Largest concise Abelian subgroup C2V     NOp   4
                         Standard orientation:                         
 ---------------------------------------------------------------------
 Center     Atomic      Atomic             Coordinates (Angstroms)
 Number     Number       Type             X           Y           Z
 ---------------------------------------------------------------------
      1          6           0       -6.542878    0.701674    2.000000
      2          6           0       -6.542878   -0.701674    2.000000
      3          6           0       -5.349643    1.423490    2.000000
      4          6           0       -4.161429    0.700602    2.000000
      5          6           0       -4.161429   -0.700602    2.000000
      6          6           0       -5.349643   -1.423490    2.000000
      7          6           0       -2.751318    1.093433    2.000000
      8          6           0       -2.751318   -1.093433    2.000000
      9          7           0       -1.939706    0.000000    2.000000
     10          7           0       -2.391962   -2.377060    2.000000
     11          7           0       -2.391962    2.377060    2.000000
     12          1           0       -7.491036    1.232091    2.000000
     13          1           0       -7.491036   -1.232091    2.000000
     14          1           0       -5.340465    2.508839    2.000000
     15          1           0       -5.340465   -2.508839    2.000000
     16          6           0        0.703892    6.550134    2.000000
     17          6           0       -0.703892    6.550134    2.000000
     18          6           0        1.424671    5.362507    2.000000
     19          6           0        0.705223    4.167102    2.000000
     20          6           0       -0.705223    4.167102    2.000000
     21          6           0       -1.424671    5.362507    2.000000
     22          6           0        1.141499    2.784286    2.000000
     23          6           0       -1.141499    2.784286    2.000000
     24          7           0        0.000000    2.021288    2.000000
     25          7           0        2.391962    2.377060    2.000000
     26          1           0        1.233211    7.498621    2.000000
     27          1           0       -1.233211    7.498621    2.000000
     28          1           0        2.509691    5.351954    2.000000
     29          1           0       -2.509691    5.351954    2.000000
     30          6           0       -0.703892   -6.550134    2.000000
     31          6           0        0.703892   -6.550134    2.000000
     32          6           0       -1.424671   -5.362507    2.000000
     33          6           0       -0.705223   -4.167102    2.000000
     34          6           0        0.705223   -4.167102    2.000000
     35          6           0        1.424671   -5.362507    2.000000
     36          6           0       -1.141499   -2.784286    2.000000
     37          6           0        1.141499   -2.784286    2.000000
     38          7           0       -0.000000   -2.021288    2.000000
     39          7           0        2.391962   -2.377060    2.000000
     40          1           0       -1.233211   -7.498621    2.000000
     41          1           0        1.233211   -7.498621    2.000000
     42          1           0       -2.509691   -5.351954    2.000000
     43          1           0        2.509691   -5.351954    2.000000
     44          6           0        6.542878   -0.701674    2.000000
     45          6           0        6.542878    0.701674    2.000000
     46          6           0        5.349643   -1.423490    2.000000
     47          6           0        4.161429   -0.700602    2.000000
     48          6           0        4.161429    0.700602    2.000000
     49          6           0        5.349643    1.423490    2.000000
     50          6           0        2.751318   -1.093433    2.000000
     51          6           0        2.751318    1.093433    2.000000
     52          7           0        1.939706    0.000000    2.000000
     53          1           0        7.491036   -1.232091    2.000000
     54          1           0        7.491036    1.232091    2.000000
     55          1           0        5.340465   -2.508839    2.000000
     56          1           0        5.340465    2.508839    2.000000
     57          1           0        0.000000    1.006983    2.000000
     58          1           0       -0.000000   -1.006983    2.000000
     59          6           0       -0.701674    6.542878   -2.000000
     60          6           0        0.701674    6.542878   -2.000000
     61          6           0       -1.423490    5.349643   -2.000000
     62          6           0       -0.700602    4.161429   -2.000000
     63          6           0        0.700602    4.161429   -2.000000
     64          6           0        1.423490    5.349643   -2.000000
     65          6           0       -1.093433    2.751318   -2.000000
     66          6           0        1.093433    2.751318   -2.000000
     67          7           0        0.000000    1.939706   -2.000000
     68          7           0        2.377060    2.391962   -2.000000
     69          7           0       -2.377060    2.391962   -2.000000
     70          1           0       -1.232091    7.491036   -2.000000
     71          1           0        1.232091    7.491036   -2.000000
     72          1           0       -2.508839    5.340465   -2.000000
     73          1           0        2.508839    5.340465   -2.000000
     74          6           0       -6.550134   -0.703892   -2.000000
     75          6           0       -6.550134    0.703892   -2.000000
     76          6           0       -5.362507   -1.424671   -2.000000
     77          6           0       -4.167102   -0.705223   -2.000000
     78          6           0       -4.167102    0.705223   -2.000000
     79          6           0       -5.362507    1.424671   -2.000000
     80          6           0       -2.784286   -1.141499   -2.000000
     81          6           0       -2.784286    1.141499   -2.000000
     82          7           0       -2.021288    0.000000   -2.000000
     83          7           0       -2.377060   -2.391962   -2.000000
     84          1           0       -7.498621   -1.233211   -2.000000
     85          1           0       -7.498621    1.233211   -2.000000
     86          1           0       -5.351954   -2.509691   -2.000000
     87          1           0       -5.351954    2.509691   -2.000000
     88          6           0        6.550134    0.703892   -2.000000
     89          6           0        6.550134   -0.703892   -2.000000
     90          6           0        5.362507    1.424671   -2.000000
     91          6           0        4.167102    0.705223   -2.000000
     92          6           0        4.167102   -0.705223   -2.000000
     93          6           0        5.362507   -1.424671   -2.000000
     94          6           0        2.784286    1.141499   -2.000000
     95          6           0        2.784286   -1.141499   -2.000000
     96          7           0        2.021288   -0.000000   -2.000000
     97          7           0        2.377060   -2.391962   -2.000000
     98          1           0        7.498621    1.233211   -2.000000
     99          1           0        7.498621   -1.233211   -2.000000
    100          1           0        5.351954    2.509691   -2.000000
    101          1           0        5.351954   -2.509691   -2.000000
    102          6           0        0.701674   -6.542878   -2.000000
    103          6           0       -0.701674   -6.542878   -2.000000
    104          6           0        1.423490   -5.349643   -2.000000
    105          6           0        0.700602   -4.161429   -2.000000
    106          6           0       -0.700602   -4.161429   -2.000000
    107          6           0       -1.423490   -5.349643   -2.000000
    108          6           0        1.093433   -2.751318   -2.000000
    109          6           0       -1.093433   -2.751318   -2.000000
    110          7           0       -0.000000   -1.939706   -2.000000
    111          1           0        1.232091   -7.491036   -2.000000
    112          1           0       -1.232091   -7.491036   -2.000000
    113          1           0        2.508839   -5.340465   -2.000000
    114          1           0       -2.508839   -5.340465   -2.000000
    115          1           0       -1.006983    0.000000   -2.000000
    116          1           0        1.006983   -0.000000   -2.000000
 ---------------------------------------------------------------------
 Rotational constants (GHZ):      0.0328245      0.0328245      0.0223954
 Leave Link  202 at Thu May 15 16:26:57 2025, MaxMem=  2147483648 cpu:         0.0
 (Enter /opt/g09/l301.exe)
 Standard basis: def2SVP (5D, 7F)
 Ernie: Thresh=  0.10000D-02 Tol=  0.10000D-05 Strict=F.
 There are   362 symmetry adapted cartesian basis functions of A1  symmetry.
 There are   328 symmetry adapted cartesian basis functions of A2  symmetry.
 There are   345 symmetry adapted cartesian basis functions of B1  symmetry.
 There are   345 symmetry adapted cartesian basis functions of B2  symmetry.
 There are   340 symmetry adapted basis functions of A1  symmetry.
 There are   310 symmetry adapted basis functions of A2  symmetry.
 There are   325 symmetry adapted basis functions of B1  symmetry.
 There are   325 symmetry adapted basis functions of B2  symmetry.
  1300 basis functions,  2252 primitive gaussians,  1380 cartesian basis functions
   266 alpha electrons      266 beta electrons
       nuclear repulsion energy     13642.3268725681 Hartrees.
 IExCor=10402 DFT=T Ex=LC-B+HF Corr=LYP ExCW=0 ScaHFX=  1.000000
 ScaDFX=  1.000000  1.000000  1.000000  1.000000 ScalE2=  1.000000  1.000000
 IRadAn=      0 IRanWt=     -1 IRanGd=            0 ICorTp=0 IEmpDi=  4
  HFx wShort=  0.000000 wLong=  0.400000 cFull=  0.000000 cShort=  0.000000 cLong=  1.000000
  DFx wShort=  0.000000 wLong=  0.400000 cFull=  0.000000 cShort=  0.000000 cLong=  1.000000
 NAtoms=  116 NActive=  116 NUniq=   16 SFac= 4.00D+00 NAtFMM=   60 NAOKFM=T Big=F
 Integral buffers will be    131072 words long.
 Raffenetti 2 integral format.
 Two-electron integral symmetry is turned on.
 Leave Link  301 at Thu May 15 16:26:57 2025, MaxMem=  2147483648 cpu:         0.2
 (Enter /opt/g09/l302.exe)
 NPDir=0 NMtPBC=     1 NCelOv=     1 NCel=       1 NClECP=     1 NCelD=      1
         NCelK=      1 NCelE2=     1 NClLst=     1 CellRange=     0.0.
 One-electron integrals computed using PRISM.
 One-electron integral symmetry used in STVInt
   8 Symmetry operations used in ECPInt.
 ECPInt:  NShTT=  173166 NPrTT=  651518 LenC2=  125783 LenP2D=  278640.
 LDataN:  DoStor=T MaxTD1= 4 Len=   56
 NBasis=  1300 RedAO= T EigKep=  9.74D-05  NBF=   340   310   325   325
 NBsUse=  1300 1.00D-06 EigRej= -1.00D+00 NBFU=   340   310   325   325
 Precomputing XC quadrature grid using
 IXCGrd= 4 IRadAn=           0 IRanWt=          -1 IRanGd=           0 AccXCQ= 0.00D+00.
 Generated NRdTot=       0 NPtTot=           0 NUsed=           0 NTot=          32
 NSgBfM=  1092  1092  1092  1092  1092 MxSgAt=   116 MxSgA2=   116.
 Leave Link  302 at Thu May 15 16:26:59 2025, MaxMem=  2147483648 cpu:        14.5
 (Enter /opt/g09/l303.exe)
 DipDrv:  MaxL=1.
 Leave Link  303 at Thu May 15 16:26:59 2025, MaxMem=  2147483648 cpu:         1.5
 (Enter /opt/g09/l401.exe)
 ExpMin= 1.22D-01 ExpMax= 1.71D+03 ExpMxC= 2.58D+02 IAcc=1 IRadAn=         1 AccDes= 0.00D+00
 Harris functional with IExCor=10402 and IRadAn=       1 diagonalized for initial guess.
 HarFok:  IExCor=10402 AccDes= 0.00D+00 IRadAn=         1 IDoV= 1 UseB2=F ITyADJ=14
 ICtDFT=  3500011 ScaDFX=  1.000000  1.000000  1.000000  1.000000
 FoFCou: FMM=F IPFlag=           0 FMFlag=      100000 FMFlg1=        2000
         NFxFlg=           0 DoJE=T BraDBF=F KetDBF=T FulRan=T
         wScrn=  0.000000 ICntrl=     500 IOpCl=  0 I1Cent=   200000004 NGrid=           0
         NMat0=    1 NMatS0=      1 NMatT0=    0 NMatD0=    1 NMtDS0=    0 NMtDT0=    0
 Petite list used in FoFCou.
 Harris En= -3220.00382431277    
 JPrj=0 DoOrth=F DoCkMO=F.
 Initial guess orbital symmetries:
       Occupied  (E) (E) (B2) (A1) (E) (E) (A2) (B2) (E) (E) (A1)
                 (B1) (B2) (A1) (E) (E) (B1) (A2) (E) (E) (E) (E)
                 (A1) (B2) (A2) (E) (E) (B1) (B2) (E) (E) (A1)
                 (E) (E) (B2) (A1) (B1) (E) (E) (A2) (B2) (E) (E)
                 (A1) (A2) (E) (E) (B1) (E) (E) (B2) (A1) (A2)
                 (E) (E) (B1) (A2) (E) (E) (B1) (B2) (E) (E) (A1)
                 (B1) (A2) (E) (E) (E) (E) (A1) (B2) (B1) (A2)
                 (E) (E) (A1) (B2) (E) (E) (A1) (B2) (E) (E) (E)
                 (E) (B2) (A1) (B1) (A2) (E) (E) (E) (E) (A1) (B2)
                 (B2) (A1) (E) (E) (E) (E) (A1) (B2) (A2) (B1)
                 (E) (E) (A1) (B2) (E) (E) (B1) (E) (E) (A2) (E)
                 (E) (B2) (A1) (A2) (B1) (E) (E) (E) (E) (A1) (B2)
                 (E) (E) (E) (E) (B2) (A1) (B1) (A2) (B2) (A1)
                 (E) (E) (E) (E) (A2) (B1) (A1) (B2) (B1) (A2)
                 (E) (E) (E) (E) (B2) (A1) (E) (E) (E) (E) (A1)
                 (B2) (E) (E) (E) (E) (B2) (B1) (A1) (A2) (A2)
                 (B1) (E) (E) (E) (E) (A1) (B2) (E) (E) (A2) (B1)
                 (B1) (E) (E) (A2) (E) (E) (A1) (B2) (A1) (A2)
                 (B1) (E) (E) (E) (E) (B2) (B2) (A1) (E) (E) (B2)
                 (E) (E) (A1) (B1) (A2) (E) (E) (E) (E) (A1) (A2)
                 (B1) (E) (E) (A1) (B2) (B1) (B2) (E) (E) (E) (E)
                 (E) (E) (B2) (A1) (A2) (B2) (A1) (E) (E) (E) (E)
                 (A2) (A1) (B2) (B1) (E) (E) (B1) (E) (E) (A1)
                 (A1) (A2) (B2) (E) (E) (E) (E) (E) (E) (B2) (B2)
                 (E) (E) (A1) (B1) (A2) (E) (E) (A1) (B2) (A2)
                 (B1)
       Virtual   (E) (E) (E) (E) (B1) (B2) (A1) (E) (E) (A2) (A1)
                 (B2) (E) (E) (A2) (E) (E) (B1) (E) (E) (B1) (A1)
                 (E) (E) (B2) (A2) (A1) (B2) (B1) (B2) (E) (E)
                 (E) (E) (A1) (A2) (A1) (A2) (A1) (E) (E) (E) (E)
                 (E) (E) (E) (E) (B2) (B1) (B1) (A1) (B2) (E) (E)
                 (E) (E) (A2) (B2) (B2) (E) (E) (A2) (B1) (A1)
                 (B1) (A2) (E) (E) (A1) (E) (E) (A2) (E) (E) (B2)
                 (B1) (B1) (A2) (E) (E) (B1) (A1) (E) (E) (B2)
                 (E) (E) (A2) (B2) (B1) (E) (E) (A1) (E) (E) (B2)
                 (A2) (E) (E) (E) (E) (B1) (A2) (B1) (A1) (E) (E)
                 (B2) (A1) (E) (E) (A2) (E) (E) (A1) (E) (E) (B2)
                 (B2) (E) (E) (B1) (A1) (A1) (E) (E) (B2) (E) (E)
                 (B2) (A2) (E) (E) (A1) (B2) (E) (E) (A2) (A1)
                 (E) (E) (A1) (B1) (A2) (E) (E) (B2) (B1) (E) (E)
                 (A2) (A1) (B1) (E) (E) (B2) (E) (E) (B2) (A1)
                 (E) (E) (B1) (B2) (E) (E) (A1) (E) (E) (A2) (E)
                 (E) (B2) (A2) (A1) (B1) (A2) (A1) (B2) (A1) (B1)
                 (E) (E) (E) (E) (E) (E) (E) (E) (B1) (E) (E) (B2)
                 (A1) (E) (E) (B1) (A2) (B1) (A2) (B2) (E) (E)
                 (B2) (E) (E) (A2) (E) (E) (A2) (A1) (B1) (B2)
                 (E) (E) (E) (E) (A1) (A2) (B1) (A1) (E) (E) (B1)
                 (E) (E) (E) (E) (A1) (B1) (A2) (E) (E) (E) (E)
                 (A2) (B2) (A1) (B2) (E) (E) (A2) (B1) (E) (E)
                 (B1) (B2) (A1) (E) (E) (B2) (A1) (E) (E) (E) (E)
                 (B2) (E) (E) (A2) (E) (E) (B1) (B1) (B2) (A1)
                 (A1) (E) (E) (A2) (A1) (E) (E) (B2) (E) (E) (B1)
                 (A2) (A2) (B2) (B1) (E) (E) (E) (E) (A2) (B2)
                 (A2) (E) (E) (A1) (E) (E) (B1) (B2) (A2) (B1)
                 (E) (E) (E) (E) (B1) (B2) (A1) (E) (E) (B1) (E)
                 (E) (A2) (B2) (A1) (E) (E) (A1) (A1) (A2) (E)
                 (E) (E) (E) (B1) (B2) (E) (E) (A2) (A2) (A1) (E)
                 (E) (B1) (B1) (E) (E) (B2) (E) (E) (A2) (E) (E)
                 (A2) (B2) (A1) (E) (E) (B1) (E) (E) (A2) (B1)
                 (A1) (B2) (E) (E) (E) (E) (A2) (B2) (A1) (A2)
                 (E) (E) (E) (E) (A1) (A1) (B2) (B1) (E) (E) (E)
                 (E) (B1) (B1) (A2) (B2) (E) (E) (A1) (B2) (A1)
                 (E) (E) (B1) (A2) (E) (E) (B2) (A1) (E) (E) (E)
                 (E) (B1) (E) (E) (A2) (B2) (A2) (E) (E) (B1) (E)
                 (E) (B2) (B1) (E) (E) (B1) (A2) (A1) (A1) (B2)
                 (E) (E) (A1) (B2) (A2) (E) (E) (E) (E) (E) (E)
                 (B1) (A2) (E) (E) (E) (E) (B1) (B2) (A2) (A1)
                 (B2) (E) (E) (A1) (A2) (E) (E) (E) (E) (E) (E)
                 (A2) (B2) (B1) (A1) (B1) (B2) (E) (E) (A2) (E)
                 (E) (B1) (A1) (B1) (B2) (A1) (E) (E) (B2) (A1)
                 (E) (E) (A1) (B2) (B2) (E) (E) (E) (E) (E) (E)
                 (A1) (A1) (B2) (E) (E) (E) (E) (A1) (B1) (A1)
                 (E) (E) (A2) (A2) (A2) (E) (E) (B1) (B2) (E) (E)
                 (B2) (E) (E) (A1) (E) (E) (A1) (B2) (B2) (B1)
                 (E) (E) (A2) (A1) (E) (E) (E) (E) (B2) (B1) (E)
                 (E) (A2) (E) (E) (A1) (B2) (A2) (A1) (B1) (B1)
                 (E) (E) (B2) (A2) (E) (E) (B2) (E) (E) (A1) (A1)
                 (E) (E) (E) (E) (A2) (B2) (A2) (B1) (B1) (B2)
                 (A2) (E) (E) (A1) (E) (E) (B1) (B2) (E) (E) (B1)
                 (E) (E) (B1) (E) (E) (A2) (E) (E) (A1) (A1) (A2)
                 (A2) (B2) (E) (E) (E) (E) (B1) (E) (E) (A1) (B2)
                 (E) (E) (B1) (E) (E) (A2) (B2) (E) (E) (A1) (B1)
                 (A1) (E) (E) (A2) (E) (E) (B2) (A1) (B2) (E) (E)
                 (A1) (B2) (A2) (B1) (A1) (E) (E) (B2) (E) (E)
                 (B1) (E) (E) (A2) (A1) (B2) (E) (E) (E) (E) (B2)
                 (A1) (E) (E) (A2) (B1) (E) (E) (B2) (A1) (B1)
                 (B2) (E) (E) (A2) (A1) (E) (E) (B1) (A2) (E) (E)
                 (B2) (A2) (E) (E) (E) (E) (A2) (B1) (A1) (B2)
                 (E) (E) (A2) (E) (E) (B1) (A1) (E) (E) (A1) (B1)
                 (A1) (B2) (A1) (E) (E) (B2) (E) (E) (E) (E) (B1)
                 (B2) (A2) (E) (E) (E) (E) (B1) (B2) (A2) (A1)
                 (E) (E) (E) (E) (A1) (B2) (B1) (B2) (E) (E) (A2)
                 (A1) (B2) (E) (E) (A1) (E) (E) (B1) (E) (E) (A1)
                 (B2) (A2) (E) (E) (A2) (A1) (B1) (E) (E) (A1)
                 (B2) (A2) (E) (E) (B2) (E) (E) (B1) (A1) (E) (E)
                 (E) (E) (B2) (B2) (A1) (E) (E) (A2) (B1) (E) (E)
                 (A1) (B2) (B1) (E) (E) (A2) (B2) (B1) (E) (E)
                 (A1) (E) (E) (A2) (E) (E) (E) (E) (A2) (B2) (E)
                 (E) (B1) (A1) (A2) (E) (E) (A1) (E) (E) (A2) (B1)
                 (B1) (E) (E) (B2) (E) (E) (B2) (B1) (E) (E) (A2)
                 (B1) (A1) (E) (E) (E) (E) (A2) (B2) (A2) (B1)
                 (A1) (E) (E) (E) (E) (E) (E) (A2) (B1) (B2) (A1)
                 (B2) (E) (E) (B1) (A2) (A1) (E) (E) (B1) (A2)
                 (E) (E) (B1) (A2) (B1) (E) (E) (E) (E) (A1) (B2)
                 (E) (E) (A2) (E) (E) (A2) (E) (E) (B2) (B1) (A1)
                 (A1) (E) (E) (B2) (A1) (E) (E) (B2) (B1) (E) (E)
                 (A2) (A2) (B1) (E) (E) (B1) (E) (E) (E) (E) (B2)
                 (A1) (A1) (B2) (E) (E) (B1) (A2) (A2) (B2) (E)
                 (E) (A1) (E) (E) (A2) (E) (E) (B2) (E) (E) (A2)
                 (B1) (A1) (E) (E) (B2) (A1) (B1) (E) (E) (B1)
                 (E) (E) (A2) (B1) (A2) (E) (E) (B1) (A2) (E) (E)
                 (B1) (A2) (E) (E) (E) (E) (A2) (B1) (E) (E) (A1)
                 (E) (E) (A1) (E) (E) (B2) (B2) (B2) (A1) (E) (E)
                 (B1) (A1) (A2) (B2) (E) (E) (B2) (E) (E) (B1)
                 (A1) (A2) (E) (E) (E) (E) (B2) (A1) (E) (E) (A2)
                 (A1) (B1) (E) (E) (E) (E) (A2) (B2) (A2) (B1)
                 (B2) (E) (E) (B1) (E) (E) (B1) (A2) (A1) (E) (E)
                 (B1) (E) (E) (B2) (A1) (A2) (E) (E) (A2) (B1)
                 (E) (E) (B1) (A1) (E) (E) (A2) (B2) (E) (E) (A1)
                 (E) (E) (B2) (E) (E) (A2) (A1) (B2) (B1) (E) (E)
                 (E) (E) (B1) (A2) (E) (E) (A1) (B2) (A2) (B1)
                 (E) (E) (E) (E) (B1) (B2) (A1) (A2) (E) (E) (E)
                 (E) (A2) (B1) (A2) (B1) (E) (E) (A1) (B2) (E)
                 (E) (B1) (A2) (E) (E)
 The electronic state of the initial guess is 1-A1.
 Leave Link  401 at Thu May 15 16:27:01 2025, MaxMem=  2147483648 cpu:        11.3
 (Enter /opt/g09/l502.exe)
 Closed shell SCF:
 Using DIIS extrapolation, IDIIS=  1040.
 Integral symmetry usage will be decided dynamically.
 IVT=     5761218 IEndB=     5761218 NGot=  2147483648 MDV=  2143644851
 LenX=  2143644851 LenY=  2141739071
 Requested convergence on RMS density matrix=1.00D-08 within 128 cycles.
 Requested convergence on MAX density matrix=1.00D-06.
 Requested convergence on             energy=1.00D-06.
 No special actions if energy rises.
 Fock matrices will be formed incrementally for  20 cycles.
 Integral accuracy reduced to 1.0D-05 until final iterations.

 Cycle   1  Pass 0  IDiag  1:
 FoFJK:  IHMeth= 1 ICntrl=       0 DoSepK=T KAlg= 0 I1Cent=   0 FoldK=F
 IRaf=         1 NMat=   1 IRICut=       1 DoRegI=T DoRafI=F ISym2E= 1.
 FoFCou: FMM=F IPFlag=           0 FMFlag=      100000 FMFlg1=        2000
         NFxFlg=           0 DoJE=T BraDBF=F KetDBF=F FulRan=T
         wScrn=  0.000000 ICntrl=     500 IOpCl=  0 I1Cent=           0 NGrid=           0
         NMat0=    1 NMatS0=      1 NMatT0=    0 NMatD0=    1 NMtDS0=    0 NMtDT0=    0
 Petite list used in FoFCou.
 E= -3324.47536114087    
 DIIS: error= 2.28D-02 at cycle   1 NSaved=   1.
 NSaved= 1 IEnMin= 1 EnMin= -3324.47536114087     IErMin= 1 ErrMin= 2.28D-02
 ErrMax= 2.28D-02  0.00D+00 EMaxC= 1.00D-01 BMatC= 6.25D-01 BMatP= 6.25D-01
 IDIUse=3 WtCom= 7.72D-01 WtEn= 2.28D-01
 Coeff-Com:  0.100D+01
 Coeff-En:   0.100D+01
 Coeff:      0.100D+01
 Gap=     0.177 Goal=   None    Shift=    0.000
 GapD=    0.177 DampG=1.000 DampE=0.500 DampFc=0.5000 IDamp=-1.
 Damping current iteration by 5.00D-01
 RMSDP=2.48D-03 MaxDP=1.21D-01              OVMax= 1.87D-01

 Cycle   2  Pass 0  IDiag  1:
 RMSU=  1.11D-03    CP:  9.50D-01
 E= -3324.80392234138     Delta-E=       -0.328561200509 Rises=F Damp=T
 DIIS: error= 5.47D-03 at cycle   2 NSaved=   2.
 NSaved= 2 IEnMin= 2 EnMin= -3324.80392234138     IErMin= 2 ErrMin= 5.47D-03
 ErrMax= 5.47D-03  0.00D+00 EMaxC= 1.00D-01 BMatC= 4.85D-02 BMatP= 6.25D-01
 IDIUse=3 WtCom= 9.45D-01 WtEn= 5.47D-02
 Coeff-Com: -0.497D-01 0.105D+01
 Coeff-En:   0.000D+00 0.100D+01
 Coeff:     -0.470D-01 0.105D+01
 Gap=     0.205 Goal=   None    Shift=    0.000
 RMSDP=1.15D-03 MaxDP=7.07D-02 DE=-3.29D-01 OVMax= 1.23D-01

 Cycle   3  Pass 0  IDiag  1:
 RMSU=  7.63D-04    CP:  9.00D-01  1.59D+00
 E= -3325.13637009606     Delta-E=       -0.332447754674 Rises=F Damp=F
 DIIS: error= 5.74D-03 at cycle   3 NSaved=   3.
 NSaved= 3 IEnMin= 3 EnMin= -3325.13637009606     IErMin= 2 ErrMin= 5.47D-03
 ErrMax= 5.74D-03  0.00D+00 EMaxC= 1.00D-01 BMatC= 2.31D-02 BMatP= 4.85D-02
 IDIUse=3 WtCom= 9.43D-01 WtEn= 5.74D-02
 Coeff-Com: -0.786D-01 0.435D+00 0.644D+00
 Coeff-En:   0.000D+00 0.000D+00 0.100D+01
 Coeff:     -0.741D-01 0.410D+00 0.664D+00
 Gap=     0.168 Goal=   None    Shift=    0.000
 RMSDP=2.29D-04 MaxDP=1.49D-02 DE=-3.32D-01 OVMax= 2.83D-02

 Cycle   4  Pass 0  IDiag  1:
 RMSU=  1.86D-04    CP:  8.98D-01  1.68D+00  8.90D-01
 E= -3325.15725278274     Delta-E=       -0.020882686680 Rises=F Damp=F
 DIIS: error= 2.12D-03 at cycle   4 NSaved=   4.
 NSaved= 4 IEnMin= 4 EnMin= -3325.15725278274     IErMin= 4 ErrMin= 2.12D-03
 ErrMax= 2.12D-03  0.00D+00 EMaxC= 1.00D-01 BMatC= 3.85D-03 BMatP= 2.31D-02
 IDIUse=3 WtCom= 9.79D-01 WtEn= 2.12D-02
 Coeff-Com: -0.239D-01 0.433D-01 0.306D+00 0.675D+00
 Coeff-En:   0.000D+00 0.000D+00 0.179D-01 0.982D+00
 Coeff:     -0.234D-01 0.424D-01 0.300D+00 0.681D+00
 Gap=     0.169 Goal=   None    Shift=    0.000
 RMSDP=8.33D-05 MaxDP=5.80D-03 DE=-2.09D-02 OVMax= 9.77D-03

 Cycle   5  Pass 0  IDiag  1:
 RMSU=  6.36D-05    CP:  8.96D-01  1.70D+00  9.48D-01  9.71D-01
 E= -3325.16087541648     Delta-E=       -0.003622633740 Rises=F Damp=F
 DIIS: error= 4.14D-04 at cycle   5 NSaved=   5.
 NSaved= 5 IEnMin= 5 EnMin= -3325.16087541648     IErMin= 5 ErrMin= 4.14D-04
 ErrMax= 4.14D-04  0.00D+00 EMaxC= 1.00D-01 BMatC= 1.84D-04 BMatP= 3.85D-03
 IDIUse=3 WtCom= 9.96D-01 WtEn= 4.14D-03
 Coeff-Com: -0.925D-03-0.259D-01 0.385D-01 0.213D+00 0.775D+00
 Coeff-En:   0.000D+00 0.000D+00 0.000D+00 0.000D+00 0.100D+01
 Coeff:     -0.921D-03-0.257D-01 0.383D-01 0.212D+00 0.776D+00
 Gap=     0.170 Goal=   None    Shift=    0.000
 RMSDP=2.55D-05 MaxDP=1.26D-03 DE=-3.62D-03 OVMax= 3.17D-03

 Cycle   6  Pass 0  IDiag  1:
 RMSU=  1.98D-05    CP:  8.95D-01  1.71D+00  9.61D-01  1.00D+00  1.04D+00
 E= -3325.16121264279     Delta-E=       -0.000337226309 Rises=F Damp=F
 DIIS: error= 1.90D-04 at cycle   6 NSaved=   6.
 NSaved= 6 IEnMin= 6 EnMin= -3325.16121264279     IErMin= 6 ErrMin= 1.90D-04
 ErrMax= 1.90D-04  0.00D+00 EMaxC= 1.00D-01 BMatC= 2.50D-05 BMatP= 1.84D-04
 IDIUse=3 WtCom= 9.98D-01 WtEn= 1.90D-03
 Coeff-Com:  0.192D-02-0.124D-01-0.173D-01 0.224D-02 0.250D+00 0.775D+00
 Coeff-En:   0.000D+00 0.000D+00 0.000D+00 0.000D+00 0.000D+00 0.100D+01
 Coeff:      0.192D-02-0.124D-01-0.172D-01 0.223D-02 0.250D+00 0.776D+00
 Gap=     0.170 Goal=   None    Shift=    0.000
 RMSDP=1.04D-05 MaxDP=5.58D-04 DE=-3.37D-04 OVMax= 1.86D-03

 Cycle   7  Pass 0  IDiag  1:
 RMSU=  9.40D-06    CP:  8.95D-01  1.71D+00  9.61D-01  1.01D+00  1.08D+00
                    CP:  1.12D+00
 E= -3325.16130055250     Delta-E=       -0.000087909713 Rises=F Damp=F
 DIIS: error= 9.87D-05 at cycle   7 NSaved=   7.
 NSaved= 7 IEnMin= 7 EnMin= -3325.16130055250     IErMin= 7 ErrMin= 9.87D-05
 ErrMax= 9.87D-05  0.00D+00 EMaxC= 1.00D-01 BMatC= 4.83D-06 BMatP= 2.50D-05
 IDIUse=1 WtCom= 1.00D+00 WtEn= 0.00D+00
 Coeff-Com:  0.864D-03 0.473D-04-0.124D-01-0.340D-01-0.597D-01 0.247D+00
 Coeff-Com:  0.858D+00
 Coeff:      0.864D-03 0.473D-04-0.124D-01-0.340D-01-0.597D-01 0.247D+00
 Coeff:      0.858D+00
 Gap=     0.170 Goal=   None    Shift=    0.000
 RMSDP=6.00D-06 MaxDP=2.02D-04 DE=-8.79D-05 OVMax= 9.05D-04

 Initial convergence to 1.0D-05 achieved.  Increase integral accuracy.
 Cycle   8  Pass 1  IDiag  1:
 E= -3325.16030073266     Delta-E=        0.000999819837 Rises=F Damp=F
 DIIS: error= 2.32D-03 at cycle   1 NSaved=   1.
 NSaved= 1 IEnMin= 1 EnMin= -3325.16030073266     IErMin= 1 ErrMin= 2.32D-03
 ErrMax= 2.32D-03  0.00D+00 EMaxC= 1.00D-01 BMatC= 4.54D-04 BMatP= 4.54D-04
 IDIUse=3 WtCom= 9.77D-01 WtEn= 2.32D-02
 Coeff-Com:  0.100D+01
 Coeff-En:   0.100D+01
 Coeff:      0.100D+01
 Gap=     0.171 Goal=   None    Shift=    0.000
 RMSDP=6.00D-06 MaxDP=2.02D-04 DE= 1.00D-03 OVMax= 2.79D-03

 Cycle   9  Pass 1  IDiag  1:
 RMSU=  5.83D-04    CP:  9.92D-01
 E= -3325.16074076165     Delta-E=       -0.000440028984 Rises=F Damp=F
 DIIS: error= 9.18D-05 at cycle   2 NSaved=   2.
 NSaved= 2 IEnMin= 2 EnMin= -3325.16074076165     IErMin= 2 ErrMin= 9.18D-05
 ErrMax= 9.18D-05  0.00D+00 EMaxC= 1.00D-01 BMatC= 1.28D-06 BMatP= 4.54D-04
 IDIUse=1 WtCom= 1.00D+00 WtEn= 0.00D+00
 Coeff-Com: -0.378D-01 0.104D+01
 Coeff:     -0.378D-01 0.104D+01
 Gap=     0.171 Goal=   None    Shift=    0.000
 RMSDP=2.63D-05 MaxDP=7.57D-04 DE=-4.40D-04 OVMax= 2.85D-04

 Cycle  10  Pass 1  IDiag  1:
 RMSU=  7.72D-06    CP:  9.92D-01  1.04D+00
 E= -3325.16074257147     Delta-E=       -0.000001809822 Rises=F Damp=F
 DIIS: error= 2.41D-05 at cycle   3 NSaved=   3.
 NSaved= 3 IEnMin= 3 EnMin= -3325.16074257147     IErMin= 3 ErrMin= 2.41D-05
 ErrMax= 2.41D-05  0.00D+00 EMaxC= 1.00D-01 BMatC= 4.35D-07 BMatP= 1.28D-06
 IDIUse=1 WtCom= 1.00D+00 WtEn= 0.00D+00
 Coeff-Com: -0.174D-01 0.447D+00 0.571D+00
 Coeff:     -0.174D-01 0.447D+00 0.571D+00
 Gap=     0.171 Goal=   None    Shift=    0.000
 RMSDP=9.39D-07 MaxDP=5.44D-05 DE=-1.81D-06 OVMax= 1.32D-04

 Cycle  11  Pass 1  IDiag  1:
 RMSU=  7.81D-07    CP:  9.92D-01  1.04D+00  1.05D+00
 E= -3325.16074309332     Delta-E=       -0.000000521854 Rises=F Damp=F
 DIIS: error= 1.23D-05 at cycle   4 NSaved=   4.
 NSaved= 4 IEnMin= 4 EnMin= -3325.16074309332     IErMin= 4 ErrMin= 1.23D-05
 ErrMax= 1.23D-05  0.00D+00 EMaxC= 1.00D-01 BMatC= 4.90D-08 BMatP= 4.35D-07
 IDIUse=1 WtCom= 1.00D+00 WtEn= 0.00D+00
 Coeff-Com:  0.383D-02-0.112D+00 0.143D+00 0.965D+00
 Coeff:      0.383D-02-0.112D+00 0.143D+00 0.965D+00
 Gap=     0.171 Goal=   None    Shift=    0.000
 RMSDP=7.81D-07 MaxDP=3.76D-05 DE=-5.22D-07 OVMax= 1.14D-04

 Cycle  12  Pass 1  IDiag  1:
 RMSU=  4.22D-07    CP:  9.92D-01  1.04D+00  1.12D+00  1.14D+00
 E= -3325.16074326011     Delta-E=       -0.000000166787 Rises=F Damp=F
 DIIS: error= 5.37D-06 at cycle   5 NSaved=   5.
 NSaved= 5 IEnMin= 5 EnMin= -3325.16074326011     IErMin= 5 ErrMin= 5.37D-06
 ErrMax= 5.37D-06  0.00D+00 EMaxC= 1.00D-01 BMatC= 7.75D-09 BMatP= 4.90D-08
 IDIUse=1 WtCom= 1.00D+00 WtEn= 0.00D+00
 Coeff-Com:  0.287D-02-0.753D-01-0.425D-01 0.116D+00 0.999D+00
 Coeff:      0.287D-02-0.753D-01-0.425D-01 0.116D+00 0.999D+00
 Gap=     0.171 Goal=   None    Shift=    0.000
 RMSDP=2.41D-07 MaxDP=1.70D-05 DE=-1.67D-07 OVMax= 6.50D-05

 Cycle  13  Pass 1  IDiag  1:
 RMSU=  1.45D-07    CP:  9.92D-01  1.04D+00  1.13D+00  1.24D+00  1.36D+00
 E= -3325.16074330709     Delta-E=       -0.000000046984 Rises=F Damp=F
 DIIS: error= 2.36D-06 at cycle   6 NSaved=   6.
 NSaved= 6 IEnMin= 6 EnMin= -3325.16074330709     IErMin= 6 ErrMin= 2.36D-06
 ErrMax= 2.36D-06  0.00D+00 EMaxC= 1.00D-01 BMatC= 2.69D-09 BMatP= 7.75D-09
 IDIUse=1 WtCom= 1.00D+00 WtEn= 0.00D+00
 Coeff-Com: -0.681D-03 0.224D-01-0.680D-01-0.374D+00 0.313D+00 0.111D+01
 Coeff:     -0.681D-03 0.224D-01-0.680D-01-0.374D+00 0.313D+00 0.111D+01
 Gap=     0.171 Goal=   None    Shift=    0.000
 RMSDP=1.89D-07 MaxDP=1.48D-05 DE=-4.70D-08 OVMax= 5.55D-05

 Cycle  14  Pass 1  IDiag  1:
 RMSU=  8.84D-08    CP:  9.92D-01  1.04D+00  1.13D+00  1.29D+00  1.69D+00
                    CP:  1.58D+00
 E= -3325.16074332230     Delta-E=       -0.000000015210 Rises=F Damp=F
 DIIS: error= 7.76D-07 at cycle   7 NSaved=   7.
 NSaved= 7 IEnMin= 7 EnMin= -3325.16074332230     IErMin= 7 ErrMin= 7.76D-07
 ErrMax= 7.76D-07  0.00D+00 EMaxC= 1.00D-01 BMatC= 2.11D-10 BMatP= 2.69D-09
 IDIUse=1 WtCom= 1.00D+00 WtEn= 0.00D+00
 Coeff-Com: -0.431D-03 0.129D-01-0.213D-01-0.136D+00 0.331D-01 0.400D+00
 Coeff-Com:  0.712D+00
 Coeff:     -0.431D-03 0.129D-01-0.213D-01-0.136D+00 0.331D-01 0.400D+00
 Coeff:      0.712D+00
 Gap=     0.171 Goal=   None    Shift=    0.000
 RMSDP=3.31D-08 MaxDP=1.72D-06 DE=-1.52D-08 OVMax= 7.06D-06

 Cycle  15  Pass 1  IDiag  1:
 RMSU=  2.36D-08    CP:  9.92D-01  1.04D+00  1.13D+00  1.29D+00  1.70D+00
                    CP:  1.68D+00  1.12D+00
 E= -3325.16074332263     Delta-E=       -0.000000000327 Rises=F Damp=F
 DIIS: error= 3.58D-07 at cycle   8 NSaved=   8.
 NSaved= 8 IEnMin= 8 EnMin= -3325.16074332263     IErMin= 8 ErrMin= 3.58D-07
 ErrMax= 3.58D-07  0.00D+00 EMaxC= 1.00D-01 BMatC= 3.55D-11 BMatP= 2.11D-10
 IDIUse=1 WtCom= 1.00D+00 WtEn= 0.00D+00
 Coeff-Com: -0.184D-04 0.201D-03 0.405D-02 0.230D-01-0.502D-01-0.528D-01
 Coeff-Com:  0.224D+00 0.852D+00
 Coeff:     -0.184D-04 0.201D-03 0.405D-02 0.230D-01-0.502D-01-0.528D-01
 Coeff:      0.224D+00 0.852D+00
 Gap=     0.171 Goal=   None    Shift=    0.000
 RMSDP=1.57D-08 MaxDP=7.83D-07 DE=-3.27D-10 OVMax= 3.16D-06

 Cycle  16  Pass 1  IDiag  1:
 RMSU=  9.29D-09    CP:  9.92D-01  1.04D+00  1.13D+00  1.28D+00  1.70D+00
                    CP:  1.73D+00  1.20D+00  1.04D+00
 E= -3325.16074332321     Delta-E=       -0.000000000578 Rises=F Damp=F
 DIIS: error= 1.08D-07 at cycle   9 NSaved=   9.
 NSaved= 9 IEnMin= 9 EnMin= -3325.16074332321     IErMin= 9 ErrMin= 1.08D-07
 ErrMax= 1.08D-07  0.00D+00 EMaxC= 1.00D-01 BMatC= 8.95D-12 BMatP= 3.55D-11
 IDIUse=1 WtCom= 1.00D+00 WtEn= 0.00D+00
 Coeff-Com:  0.970D-04-0.304D-02 0.670D-02 0.444D-01-0.339D-01-0.114D+00
 Coeff-Com: -0.708D-01 0.349D+00 0.822D+00
 Coeff:      0.970D-04-0.304D-02 0.670D-02 0.444D-01-0.339D-01-0.114D+00
 Coeff:     -0.708D-01 0.349D+00 0.822D+00
 Gap=     0.171 Goal=   None    Shift=    0.000
 RMSDP=7.30D-09 MaxDP=2.96D-07 DE=-5.78D-10 OVMax= 1.73D-06

 SCF Done:  E(RLC-B+HF-LYP) =  -3325.16074332     A.U. after   16 cycles
            NFock= 16  Conv=0.73D-08     -V/T= 2.0095
 KE= 3.293993772016D+03 PE=-3.501017523047D+04 EE= 1.474869384257D+04
 Leave Link  502 at Thu May 15 16:29:03 2025, MaxMem=  2147483648 cpu:       971.7
 (Enter /opt/g09/l601.exe)
 Copying SCF densities to generalized density rwf, IOpCl= 0 IROHF=0.
 Hyperfine terms turned off by default for NAtoms > 100.

 **********************************************************************

            Population analysis using the SCF density.

 **********************************************************************

 Orbital symmetries:
       Occupied  (E) (E) (B2) (A1) (E) (E) (A2) (B2) (E) (E) (A1)
                 (B1) (B2) (A1) (E) (E) (B1) (A2) (E) (E) (E) (E)
                 (A1) (B2) (B1) (A2) (E) (E) (A1) (E) (E) (B2)
                 (E) (E) (B2) (A1) (A2) (E) (E) (B1) (A2) (B1)
                 (E) (E) (B2) (E) (E) (A1) (B2) (E) (E) (A1) (A2)
                 (E) (E) (B1) (A2) (B1) (E) (E) (B2) (E) (E) (A1)
                 (B2) (E) (E) (A1) (A2) (E) (E) (B1) (E) (E) (B2)
                 (A1) (A2) (E) (E) (B1) (A1) (B2) (E) (E) (E) (E)
                 (B2) (A1) (B1) (A2) (E) (E) (E) (E) (A1) (B2)
                 (B2) (A1) (E) (E) (E) (E) (B2) (A1) (A2) (A1)
                 (B1) (B2) (E) (E) (E) (E) (E) (E) (B1) (E) (E)
                 (A2) (B2) (A1) (A2) (B1) (E) (E) (E) (E) (A1)
                 (B2) (E) (E) (B2) (A1) (E) (E) (B1) (A2) (B2)
                 (A1) (E) (E) (B1) (A2) (E) (E) (A2) (B1) (A1)
                 (B2) (E) (E) (E) (E) (E) (E) (B2) (A1) (E) (E)
                 (A1) (B2) (E) (E) (A2) (B1) (B1) (A2) (A1) (E)
                 (E) (B2) (E) (E) (E) (E) (B2) (A1) (E) (E) (A2)
                 (B1) (E) (E) (A1) (B2) (E) (E) (E) (E) (B1) (B2)
                 (A2) (A1) (B2) (E) (E) (A2) (B1) (A1) (E) (E)
                 (B2) (A1) (E) (E) (B1) (A2) (E) (E) (A1) (B2)
                 (B1) (A2) (E) (E) (E) (E) (E) (E) (B2) (A2) (B1)
                 (A1) (B2) (A1) (E) (E) (E) (E) (B2) (A1) (E) (E)
                 (E) (E) (A1) (B2) (E) (E) (A1) (B2) (E) (E) (A2)
                 (E) (E) (B1) (A2) (B1) (A1) (B2) (B1) (E) (E)
                 (E) (E) (A2) (E) (E) (A1) (B2) (E) (E) (A1) (B2)
                 (A2) (B1)
       Virtual   (E) (E) (E) (E) (B1) (B2) (A2) (A1) (E) (E) (A1)
                 (E) (E) (B2) (A2) (E) (E) (B1) (E) (E) (A1) (B2)
                 (E) (E) (B2) (A1) (B1) (B1) (B2) (E) (E) (A2)
                 (A1) (E) (E) (A1) (A2) (A1) (A2) (E) (E) (E) (E)
                 (B2) (E) (E) (B1) (B1) (A1) (B2) (E) (E) (E) (E)
                 (E) (E) (A2) (B2) (E) (E) (A2) (A1) (B2) (A1)
                 (B2) (E) (E) (B1) (B1) (A2) (B1) (E) (E) (B1)
                 (E) (E) (A2) (E) (E) (A2) (B1) (E) (E) (A1) (B2)
                 (E) (E) (A1) (B2) (E) (E) (B2) (A2) (A2) (E) (E)
                 (B1) (E) (E) (E) (E) (B1) (A2) (A1) (E) (E) (B1)
                 (E) (E) (A2) (A1) (E) (E) (B2) (B2) (A1) (E) (E)
                 (B1) (E) (E) (A1) (A2) (B2) (E) (E) (B2) (E) (E)
                 (A1) (B2) (E) (E) (A1) (E) (E) (B2) (A2) (A1)
                 (A1) (A2) (E) (E) (E) (E) (B1) (B2) (B1) (E) (E)
                 (A1) (B1) (A2) (E) (E) (A1) (B2) (E) (E) (B2)
                 (E) (E) (E) (E) (A1) (B2) (E) (E) (B1) (A1) (B2)
                 (A2) (E) (E) (B2) (A2) (A1) (A2) (B1) (E) (E)
                 (A1) (B1) (E) (E) (E) (E) (B1) (A1) (E) (E) (B1)
                 (B2) (E) (E) (E) (E) (B2) (A2) (B2) (E) (E) (B1)
                 (E) (E) (A2) (A1) (E) (E) (A2) (A1) (E) (E) (A2)
                 (B2) (E) (E) (B1) (B1) (A2) (E) (E) (A1) (E) (E)
                 (B1) (E) (E) (A1) (E) (E) (B2) (A1) (B1) (E) (E)
                 (A2) (A2) (B2) (A2) (E) (E) (B2) (E) (E) (B1)
                 (A1) (B1) (E) (E) (B2) (A1) (E) (E) (B2) (E) (E)
                 (B2) (E) (E) (E) (E) (A2) (A1) (E) (E) (B1) (B1)
                 (A1) (B2) (E) (E) (A2) (A2) (A1) (E) (E) (B2)
                 (B1) (A2) (E) (E) (E) (E) (A1) (B1) (A2) (E) (E)
                 (A2) (B2) (B1) (E) (E) (E) (E) (B2) (A1) (B1)
                 (B1) (A2) (B2) (E) (E) (E) (E) (A2) (E) (E) (A1)
                 (B2) (B1) (E) (E) (A1) (E) (E) (B2) (B1) (A1)
                 (E) (E) (A2) (A1) (A2) (E) (E) (E) (E) (B2) (E)
                 (E) (B1) (A2) (E) (E) (E) (E) (A1) (A2) (B1) (B2)
                 (A2) (E) (E) (A1) (B2) (A2) (E) (E) (A1) (E) (E)
                 (E) (E) (A2) (B1) (B2) (E) (E) (B1) (A2) (A1)
                 (E) (E) (E) (E) (B2) (B1) (A1) (E) (E) (B1) (B1)
                 (B2) (E) (E) (B2) (A2) (A1) (B1) (A2) (E) (E)
                 (A1) (E) (E) (B2) (A1) (E) (E) (E) (E) (B2) (E)
                 (E) (B1) (A2) (E) (E) (B1) (A2) (B2) (E) (E) (B1)
                 (E) (E) (B1) (A2) (A1) (A1) (B2) (E) (E) (A1)
                 (A2) (E) (E) (E) (E) (B2) (E) (E) (E) (E) (B1)
                 (A2) (E) (E) (B1) (A2) (B2) (E) (E) (A1) (B2)
                 (A1) (A2) (E) (E) (E) (E) (A2) (A1) (E) (E) (B2)
                 (B1) (B1) (E) (E) (B2) (B1) (A2) (E) (E) (B1)
                 (A1) (B2) (E) (E) (A1) (B2) (A1) (E) (E) (E) (E)
                 (A1) (B2) (E) (E) (E) (E) (A1) (A2) (B2) (E) (E)
                 (A1) (A1) (E) (E) (B2) (B1) (E) (E) (A1) (A2)
                 (E) (E) (B2) (E) (E) (B1) (A2) (E) (E) (A2) (B2)
                 (B1) (A1) (B2) (E) (E) (A1) (B2) (E) (E) (A1)
                 (E) (E) (E) (E) (B2) (E) (E) (A1) (B1) (B2) (A1)
                 (B1) (E) (E) (A2) (A2) (E) (E) (B1) (B2) (E) (E)
                 (A1) (A2) (E) (E) (B2) (E) (E) (A2) (A1) (E) (E)
                 (A2) (B1) (B2) (B2) (B1) (A2) (E) (E) (A1) (E)
                 (E) (B1) (B2) (E) (E) (E) (E) (B1) (B1) (E) (E)
                 (A2) (A1) (E) (E) (A1) (A2) (B2) (E) (E) (A2)
                 (E) (E) (E) (E) (B1) (A1) (B2) (B1) (E) (E) (A2)
                 (E) (E) (B1) (A2) (E) (E) (B2) (E) (E) (A1) (A1)
                 (E) (E) (B2) (A1) (B2) (E) (E) (A1) (A2) (B2)
                 (A1) (E) (E) (B2) (B1) (E) (E) (B1) (E) (E) (A1)
                 (A2) (B2) (E) (E) (E) (E) (B2) (E) (E) (B1) (A2)
                 (A1) (B2) (E) (E) (B1) (A2) (E) (E) (A1) (B2)
                 (B1) (A2) (A2) (E) (E) (A1) (E) (E) (B2) (E) (E)
                 (A2) (E) (E) (B1) (E) (E) (B2) (A1) (A2) (E) (E)
                 (B1) (A1) (A1) (E) (E) (B2) (B1) (E) (E) (A1)
                 (B2) (E) (E) (A1) (E) (E) (B1) (B2) (A2) (E) (E)
                 (E) (E) (B1) (A1) (B2) (A2) (A1) (E) (E) (B2)
                 (E) (E) (B1) (B2) (A2) (E) (E) (B2) (E) (E) (A1)
                 (B1) (E) (E) (A1) (A1) (A2) (B1) (A1) (B2) (E)
                 (E) (A2) (E) (E) (E) (E) (B2) (A1) (A2) (E) (E)
                 (E) (E) (B2) (B1) (E) (E) (A1) (B2) (E) (E) (B2)
                 (A1) (E) (E) (A2) (A1) (B1) (B2) (E) (E) (E) (E)
                 (B1) (E) (E) (A2) (B1) (E) (E) (A1) (A2) (B2)
                 (E) (E) (A2) (E) (E) (B2) (E) (E) (B1) (A2) (E)
                 (E) (B1) (E) (E) (A1) (A2) (A1) (B1) (E) (E) (B2)
                 (E) (E) (B1) (E) (E) (B2) (A2) (A1) (B1) (E) (E)
                 (E) (E) (A2) (B2) (A2) (B1) (E) (E) (A2) (E) (E)
                 (B1) (A1) (A1) (B1) (E) (E) (B1) (B2) (A2) (E)
                 (E) (E) (E) (A2) (B2) (E) (E) (A1) (A2) (E) (E)
                 (B1) (B1) (A1) (E) (E) (E) (E) (B2) (E) (E) (A2)
                 (A2) (B2) (E) (E) (A1) (B1) (A1) (B2) (A1) (E)
                 (E) (E) (E) (E) (E) (B2) (B1) (A2) (A2) (B1) (A1)
                 (B2) (E) (E) (E) (E) (A1) (B1) (E) (E) (B2) (B1)
                 (A2) (E) (E) (A2) (E) (E) (E) (E) (B2) (A2) (A1)
                 (E) (E) (B2) (E) (E) (A2) (B1) (A1) (E) (E) (B1)
                 (E) (E) (E) (E) (B2) (A1) (A2) (B1) (B1) (E) (E)
                 (B1) (A2) (A2) (E) (E) (B1) (E) (E) (A2) (A1)
                 (B2) (E) (E) (A2) (E) (E) (B1) (E) (E) (A1) (B1)
                 (E) (E) (B2) (A2) (B2) (A1) (E) (E) (A1) (B2)
                 (E) (E) (E) (E) (B2) (B1) (A1) (E) (E) (A2) (B2)
                 (E) (E) (A1) (A1) (E) (E) (A2) (E) (E) (B1) (B2)
                 (A2) (E) (E) (B1) (E) (E) (B2) (A2) (A1) (E) (E)
                 (B1) (E) (E) (B2) (A1) (A2) (B1) (B1) (E) (E)
                 (E) (E) (A2) (A2) (B1) (E) (E) (A1) (B1) (B2)
                 (E) (E) (A2) (E) (E) (A1) (E) (E) (B2) (E) (E)
                 (A2) (B2) (A1) (B1) (E) (E) (E) (E) (E) (E) (A2)
                 (B1) (A1) (B2) (A2) (B1) (E) (E) (E) (E) (B2)
                 (A1) (B1) (A2) (E) (E) (E) (E) (A2) (B1) (A1)
                 (B2) (E) (E) (A2) (B1) (E) (E) (E) (E) (B1) (A2)
 The electronic state is 1-A1.
 Alpha  occ. eigenvalues --  -14.27256 -14.27256 -14.27252 -14.27251 -14.22431
 Alpha  occ. eigenvalues --  -14.22431 -14.22430 -14.22429 -14.22428 -14.22428
 Alpha  occ. eigenvalues --  -14.22427 -14.22427 -14.21243 -14.21243 -14.21240
 Alpha  occ. eigenvalues --  -14.21240 -10.21150 -10.21149 -10.21149 -10.21149
 Alpha  occ. eigenvalues --  -10.21136 -10.21136 -10.21136 -10.21135 -10.19447
 Alpha  occ. eigenvalues --  -10.19446 -10.19446 -10.19446 -10.19435 -10.19435
 Alpha  occ. eigenvalues --  -10.19435 -10.19435 -10.13683 -10.13683 -10.13683
 Alpha  occ. eigenvalues --  -10.13682 -10.13676 -10.13675 -10.13675 -10.13675
 Alpha  occ. eigenvalues --  -10.13611 -10.13611 -10.13611 -10.13611 -10.13600
 Alpha  occ. eigenvalues --  -10.13600 -10.13600 -10.13600 -10.13434 -10.13434
 Alpha  occ. eigenvalues --  -10.13434 -10.13434 -10.13421 -10.13421 -10.13421
 Alpha  occ. eigenvalues --  -10.13421 -10.12907 -10.12906 -10.12906 -10.12906
 Alpha  occ. eigenvalues --  -10.12892 -10.12892 -10.12892 -10.12892 -10.12763
 Alpha  occ. eigenvalues --  -10.12763 -10.12763 -10.12763 -10.12748 -10.12748
 Alpha  occ. eigenvalues --  -10.12748 -10.12748 -10.12354 -10.12354 -10.12354
 Alpha  occ. eigenvalues --  -10.12353 -10.12340 -10.12339 -10.12339 -10.12339
 Alpha  occ. eigenvalues --   -1.15783  -1.15698  -1.15159  -1.15159  -1.12231
 Alpha  occ. eigenvalues --   -1.12231  -1.10344  -1.10275  -1.07985  -1.07899
 Alpha  occ. eigenvalues --   -1.04054  -1.04054  -1.03568  -1.03568  -1.00612
 Alpha  occ. eigenvalues --   -1.00520  -1.00156  -1.00150  -1.00136  -1.00136
 Alpha  occ. eigenvalues --   -0.98706  -0.98706  -0.98634  -0.98601  -0.91110
 Alpha  occ. eigenvalues --   -0.91032  -0.90979  -0.90974  -0.90973  -0.90973
 Alpha  occ. eigenvalues --   -0.89581  -0.89581  -0.88681  -0.88681  -0.88628
 Alpha  occ. eigenvalues --   -0.88501  -0.88501  -0.88481  -0.88373  -0.88324
 Alpha  occ. eigenvalues --   -0.85229  -0.85121  -0.82969  -0.82969  -0.82128
 Alpha  occ. eigenvalues --   -0.82128  -0.79006  -0.78964  -0.78249  -0.78249
 Alpha  occ. eigenvalues --   -0.76601  -0.76574  -0.75317  -0.75317  -0.75274
 Alpha  occ. eigenvalues --   -0.75174  -0.74750  -0.74689  -0.73066  -0.73066
 Alpha  occ. eigenvalues --   -0.73038  -0.73007  -0.71950  -0.71950  -0.70877
 Alpha  occ. eigenvalues --   -0.70811  -0.70094  -0.70014  -0.69166  -0.69166
 Alpha  occ. eigenvalues --   -0.69035  -0.69035  -0.66271  -0.66271  -0.66122
 Alpha  occ. eigenvalues --   -0.66118  -0.65710  -0.65710  -0.64089  -0.64083
 Alpha  occ. eigenvalues --   -0.62825  -0.62825  -0.62652  -0.62635  -0.62331
 Alpha  occ. eigenvalues --   -0.62245  -0.61664  -0.60846  -0.60846  -0.60413
 Alpha  occ. eigenvalues --   -0.60190  -0.60190  -0.59720  -0.59720  -0.58276
 Alpha  occ. eigenvalues --   -0.58244  -0.58224  -0.58224  -0.57877  -0.57785
 Alpha  occ. eigenvalues --   -0.57758  -0.57758  -0.57549  -0.57516  -0.57111
 Alpha  occ. eigenvalues --   -0.57111  -0.56219  -0.56219  -0.56104  -0.56043
 Alpha  occ. eigenvalues --   -0.56005  -0.55658  -0.55583  -0.55518  -0.55518
 Alpha  occ. eigenvalues --   -0.54854  -0.54790  -0.54699  -0.54219  -0.54219
 Alpha  occ. eigenvalues --   -0.53712  -0.53666  -0.53175  -0.53175  -0.52151
 Alpha  occ. eigenvalues --   -0.50982  -0.50285  -0.50285  -0.50208  -0.48937
 Alpha  occ. eigenvalues --   -0.48672  -0.48609  -0.48583  -0.48583  -0.48554
 Alpha  occ. eigenvalues --   -0.48554  -0.47795  -0.47795  -0.47700  -0.47301
 Alpha  occ. eigenvalues --   -0.47253  -0.46889  -0.46820  -0.46673  -0.46143
 Alpha  occ. eigenvalues --   -0.46143  -0.45577  -0.45577  -0.45505  -0.45460
 Alpha  occ. eigenvalues --   -0.44395  -0.44395  -0.43151  -0.43151  -0.42221
 Alpha  occ. eigenvalues --   -0.42116  -0.41951  -0.41951  -0.40155  -0.40061
 Alpha  occ. eigenvalues --   -0.39445  -0.39445  -0.39054  -0.38863  -0.38863
 Alpha  occ. eigenvalues --   -0.37803  -0.37687  -0.37574  -0.37017  -0.36746
 Alpha  occ. eigenvalues --   -0.36588  -0.36507  -0.36507  -0.36439  -0.36439
 Alpha  occ. eigenvalues --   -0.35154  -0.34924  -0.34924  -0.34779  -0.34405
 Alpha  occ. eigenvalues --   -0.34104  -0.34104  -0.33286  -0.33090  -0.24301
 Alpha  occ. eigenvalues --   -0.23075
 Alpha virt. eigenvalues --   -0.06011  -0.06011  -0.04908  -0.04908   0.02958
 Alpha virt. eigenvalues --    0.03900   0.04173   0.04837   0.05137   0.05137
 Alpha virt. eigenvalues --    0.05828   0.06880   0.06880   0.07038   0.10370
 Alpha virt. eigenvalues --    0.10776   0.10776   0.11841   0.12245   0.12245
 Alpha virt. eigenvalues --    0.13558   0.13957   0.13972   0.13972   0.14628
 Alpha virt. eigenvalues --    0.15037   0.15124   0.15693   0.15791   0.16184
 Alpha virt. eigenvalues --    0.16184   0.16395   0.16813   0.16843   0.16843
 Alpha virt. eigenvalues --    0.17924   0.18149   0.18523   0.18920   0.19294
 Alpha virt. eigenvalues --    0.19294   0.19932   0.19932   0.20282   0.20728
 Alpha virt. eigenvalues --    0.20728   0.20934   0.21295   0.21645   0.21882
 Alpha virt. eigenvalues --    0.22088   0.22088   0.22595   0.22595   0.22886
 Alpha virt. eigenvalues --    0.22886   0.23412   0.23414   0.23934   0.23934
 Alpha virt. eigenvalues --    0.24347   0.25042   0.25327   0.25678   0.25754
 Alpha virt. eigenvalues --    0.26217   0.26217   0.26533   0.26786   0.27881
 Alpha virt. eigenvalues --    0.28401   0.28468   0.28468   0.29409   0.29530
 Alpha virt. eigenvalues --    0.29530   0.29855   0.30175   0.30175   0.30598
 Alpha virt. eigenvalues --    0.30700   0.31172   0.31172   0.31282   0.31811
 Alpha virt. eigenvalues --    0.32128   0.32128   0.32690   0.32755   0.33265
 Alpha virt. eigenvalues --    0.33265   0.33353   0.33718   0.34628   0.34641
 Alpha virt. eigenvalues --    0.34641   0.34972   0.34983   0.34983   0.35759
 Alpha virt. eigenvalues --    0.35759   0.36059   0.36655   0.36808   0.36815
 Alpha virt. eigenvalues --    0.36815   0.37051   0.37390   0.37390   0.37398
 Alpha virt. eigenvalues --    0.37508   0.37639   0.37639   0.37642   0.38622
 Alpha virt. eigenvalues --    0.38781   0.39029   0.39029   0.39076   0.39316
 Alpha virt. eigenvalues --    0.39316   0.39672   0.39935   0.39962   0.40080
 Alpha virt. eigenvalues --    0.40080   0.41249   0.41508   0.41508   0.41691
 Alpha virt. eigenvalues --    0.42826   0.43080   0.43080   0.43887   0.44122
 Alpha virt. eigenvalues --    0.44122   0.44143   0.44170   0.44434   0.44756
 Alpha virt. eigenvalues --    0.44758   0.44854   0.44854   0.45557   0.45557
 Alpha virt. eigenvalues --    0.45972   0.46220   0.46673   0.46713   0.46713
 Alpha virt. eigenvalues --    0.46967   0.47518   0.47556   0.48353   0.48353
 Alpha virt. eigenvalues --    0.48495   0.48848   0.48922   0.48922   0.49542
 Alpha virt. eigenvalues --    0.49725   0.49725   0.50429   0.50429   0.50536
 Alpha virt. eigenvalues --    0.50613   0.50845   0.50845   0.51130   0.51663
 Alpha virt. eigenvalues --    0.51929   0.51961   0.52039   0.52039   0.52736
 Alpha virt. eigenvalues --    0.52788   0.52817   0.53756   0.53800   0.53995
 Alpha virt. eigenvalues --    0.53995   0.54005   0.54228   0.54312   0.54312
 Alpha virt. eigenvalues --    0.54381   0.54381   0.54804   0.55670   0.55946
 Alpha virt. eigenvalues --    0.55946   0.55947   0.56078   0.56362   0.56362
 Alpha virt. eigenvalues --    0.56825   0.56825   0.57355   0.57431   0.57505
 Alpha virt. eigenvalues --    0.58040   0.58040   0.58117   0.58461   0.58461
 Alpha virt. eigenvalues --    0.58697   0.58979   0.59008   0.59008   0.59172
 Alpha virt. eigenvalues --    0.60389   0.60515   0.60515   0.60746   0.60772
 Alpha virt. eigenvalues --    0.61234   0.61234   0.61535   0.61674   0.61822
 Alpha virt. eigenvalues --    0.61859   0.61859   0.62248   0.62687   0.62687
 Alpha virt. eigenvalues --    0.63020   0.63231   0.63231   0.63627   0.64845
 Alpha virt. eigenvalues --    0.64845   0.64924   0.64951   0.65295   0.65928
 Alpha virt. eigenvalues --    0.65928   0.65948   0.66151   0.66472   0.66930
 Alpha virt. eigenvalues --    0.67314   0.67314   0.67713   0.67833   0.67833
 Alpha virt. eigenvalues --    0.68610   0.68859   0.68984   0.69213   0.69213
 Alpha virt. eigenvalues --    0.69572   0.70489   0.70812   0.70812   0.71791
 Alpha virt. eigenvalues --    0.72163   0.72163   0.72222   0.72516   0.72516
 Alpha virt. eigenvalues --    0.73094   0.73094   0.73261   0.73336   0.73579
 Alpha virt. eigenvalues --    0.73579   0.73630   0.73746   0.73967   0.74102
 Alpha virt. eigenvalues --    0.74354   0.74354   0.74357   0.74509   0.74539
 Alpha virt. eigenvalues --    0.74602   0.74602   0.74948   0.75097   0.75199
 Alpha virt. eigenvalues --    0.75308   0.75308   0.75644   0.75644   0.75843
 Alpha virt. eigenvalues --    0.76147   0.76469   0.76636   0.76636   0.76664
 Alpha virt. eigenvalues --    0.76962   0.77042   0.77326   0.77326   0.77827
 Alpha virt. eigenvalues --    0.77827   0.77864   0.78563   0.78580   0.78907
 Alpha virt. eigenvalues --    0.79074   0.79151   0.79196   0.79196   0.79559
 Alpha virt. eigenvalues --    0.79559   0.79632   0.79801   0.79801   0.79860
 Alpha virt. eigenvalues --    0.80192   0.80396   0.81197   0.81197   0.81570
 Alpha virt. eigenvalues --    0.81796   0.81796   0.81827   0.82056   0.82184
 Alpha virt. eigenvalues --    0.82384   0.82384   0.82471   0.82612   0.82957
 Alpha virt. eigenvalues --    0.83763   0.83763   0.84458   0.84458   0.84550
 Alpha virt. eigenvalues --    0.84832   0.84832   0.85385   0.85828   0.85905
 Alpha virt. eigenvalues --    0.85905   0.86168   0.86168   0.86276   0.86337
 Alpha virt. eigenvalues --    0.86821   0.87107   0.87133   0.87209   0.87209
 Alpha virt. eigenvalues --    0.87653   0.87757   0.88087   0.88104   0.88104
 Alpha virt. eigenvalues --    0.88895   0.88897   0.88897   0.89551   0.89551
 Alpha virt. eigenvalues --    0.89672   0.89849   0.90298   0.90481   0.90481
 Alpha virt. eigenvalues --    0.90773   0.90991   0.91450   0.91997   0.91997
 Alpha virt. eigenvalues --    0.92695   0.92695   0.92696   0.92817   0.93002
 Alpha virt. eigenvalues --    0.93521   0.93521   0.93730   0.94074   0.95051
 Alpha virt. eigenvalues --    0.95480   0.95480   0.95806   0.96387   0.96775
 Alpha virt. eigenvalues --    0.97578   0.97594   0.97826   0.97826   0.98292
 Alpha virt. eigenvalues --    0.98781   0.98781   0.99065   0.99806   1.00136
 Alpha virt. eigenvalues --    1.00136   1.00975   1.00975   1.01523   1.02083
 Alpha virt. eigenvalues --    1.02083   1.02241   1.03290   1.03589   1.03589
 Alpha virt. eigenvalues --    1.03592   1.04175   1.04248   1.04826   1.04826
 Alpha virt. eigenvalues --    1.04908   1.04971   1.04971   1.05675   1.05975
 Alpha virt. eigenvalues --    1.06292   1.07494   1.07522   1.08079   1.08079
 Alpha virt. eigenvalues --    1.08542   1.09414   1.09633   1.09633   1.10039
 Alpha virt. eigenvalues --    1.10039   1.10279   1.10962   1.10962   1.11876
 Alpha virt. eigenvalues --    1.11876   1.12258   1.12369   1.12863   1.12863
 Alpha virt. eigenvalues --    1.13287   1.13376   1.13698   1.14707   1.14707
 Alpha virt. eigenvalues --    1.14837   1.15215   1.16299   1.17084   1.18154
 Alpha virt. eigenvalues --    1.18154   1.18879   1.18879   1.19495   1.20400
 Alpha virt. eigenvalues --    1.20410   1.20410   1.21504   1.21699   1.22134
 Alpha virt. eigenvalues --    1.24478   1.24478   1.24590   1.26076   1.26266
 Alpha virt. eigenvalues --    1.26375   1.26375   1.27245   1.27370   1.28219
 Alpha virt. eigenvalues --    1.29362   1.29362   1.29584   1.31352   1.31595
 Alpha virt. eigenvalues --    1.31919   1.31919   1.32368   1.32368   1.32425
 Alpha virt. eigenvalues --    1.32861   1.33635   1.33635   1.34010   1.34010
 Alpha virt. eigenvalues --    1.34301   1.34606   1.34884   1.35001   1.35001
 Alpha virt. eigenvalues --    1.35123   1.35628   1.36287   1.36287   1.36580
 Alpha virt. eigenvalues --    1.36595   1.36757   1.36757   1.37029   1.37077
 Alpha virt. eigenvalues --    1.37209   1.37209   1.37384   1.37736   1.37736
 Alpha virt. eigenvalues --    1.37908   1.38354   1.38598   1.38598   1.38670
 Alpha virt. eigenvalues --    1.38808   1.39103   1.39541   1.39629   1.39992
 Alpha virt. eigenvalues --    1.39992   1.40139   1.40398   1.40468   1.40468
 Alpha virt. eigenvalues --    1.40866   1.41678   1.41678   1.41958   1.41958
 Alpha virt. eigenvalues --    1.42558   1.43319   1.43319   1.43645   1.43732
 Alpha virt. eigenvalues --    1.43864   1.43952   1.44364   1.44470   1.44470
 Alpha virt. eigenvalues --    1.44695   1.45614   1.45718   1.45718   1.45800
 Alpha virt. eigenvalues --    1.46790   1.47064   1.47064   1.47289   1.47428
 Alpha virt. eigenvalues --    1.48126   1.48126   1.48378   1.48435   1.48435
 Alpha virt. eigenvalues --    1.48808   1.49437   1.49540   1.49540   1.50343
 Alpha virt. eigenvalues --    1.50789   1.50934   1.52102   1.52404   1.53345
 Alpha virt. eigenvalues --    1.53531   1.53531   1.53802   1.55286   1.55286
 Alpha virt. eigenvalues --    1.56259   1.56396   1.57121   1.57121   1.58148
 Alpha virt. eigenvalues --    1.58148   1.58854   1.59589   1.60317   1.60317
 Alpha virt. eigenvalues --    1.61529   1.61878   1.62014   1.62014   1.62915
 Alpha virt. eigenvalues --    1.64070   1.64235   1.64848   1.64848   1.65298
 Alpha virt. eigenvalues --    1.67728   1.67728   1.68411   1.68411   1.69271
 Alpha virt. eigenvalues --    1.70119   1.70211   1.72081   1.72641   1.72641
 Alpha virt. eigenvalues --    1.73405   1.73532   1.73532   1.76932   1.76987
 Alpha virt. eigenvalues --    1.77012   1.77012   1.78034   1.78268   1.78268
 Alpha virt. eigenvalues --    1.78347   1.79309   1.80723   1.80723   1.80976
 Alpha virt. eigenvalues --    1.81029   1.81396   1.82718   1.82718   1.83213
 Alpha virt. eigenvalues --    1.83620   1.83787   1.84237   1.84535   1.84535
 Alpha virt. eigenvalues --    1.84713   1.84869   1.85821   1.85821   1.86205
 Alpha virt. eigenvalues --    1.86293   1.86293   1.86308   1.86714   1.86774
 Alpha virt. eigenvalues --    1.87551   1.87551   1.87864   1.87864   1.88183
 Alpha virt. eigenvalues --    1.88327   1.88327   1.88357   1.88428   1.88583
 Alpha virt. eigenvalues --    1.88923   1.89058   1.89058   1.89218   1.89562
 Alpha virt. eigenvalues --    1.89705   1.89705   1.90066   1.90106   1.90335
 Alpha virt. eigenvalues --    1.90365   1.91053   1.91162   1.91162   1.91371
 Alpha virt. eigenvalues --    1.91672   1.91672   1.91928   1.91968   1.91968
 Alpha virt. eigenvalues --    1.92351   1.92670   1.92670   1.92869   1.94295
 Alpha virt. eigenvalues --    1.94295   1.94342   1.94350   1.94656   1.94809
 Alpha virt. eigenvalues --    1.94809   1.95450   1.95934   1.97544   1.97557
 Alpha virt. eigenvalues --    1.97557   1.98104   1.98143   1.98608   1.98608
 Alpha virt. eigenvalues --    1.99672   2.00757   2.01316   2.01316   2.01429
 Alpha virt. eigenvalues --    2.02369   2.02369   2.02614   2.02996   2.03203
 Alpha virt. eigenvalues --    2.03933   2.03933   2.04981   2.04981   2.05214
 Alpha virt. eigenvalues --    2.05389   2.05872   2.06000   2.06423   2.06825
 Alpha virt. eigenvalues --    2.06825   2.07176   2.07440   2.07440   2.07698
 Alpha virt. eigenvalues --    2.07876   2.08042   2.08335   2.08335   2.08735
 Alpha virt. eigenvalues --    2.08803   2.08803   2.08829   2.09472   2.09515
 Alpha virt. eigenvalues --    2.09515   2.09805   2.09918   2.09978   2.10278
 Alpha virt. eigenvalues --    2.10341   2.10359   2.10584   2.10584   2.10733
 Alpha virt. eigenvalues --    2.10827   2.10827   2.12015   2.12015   2.12339
 Alpha virt. eigenvalues --    2.13017   2.13150   2.13385   2.13385   2.13864
 Alpha virt. eigenvalues --    2.13864   2.14224   2.14285   2.15025   2.15025
 Alpha virt. eigenvalues --    2.15626   2.15688   2.15872   2.15872   2.16328
 Alpha virt. eigenvalues --    2.17189   2.17280   2.17280   2.17449   2.19646
 Alpha virt. eigenvalues --    2.19794   2.20135   2.20448   2.20448   2.21095
 Alpha virt. eigenvalues --    2.21095   2.21842   2.23550   2.23550   2.23615
 Alpha virt. eigenvalues --    2.24005   2.24520   2.24520   2.24875   2.24958
 Alpha virt. eigenvalues --    2.25028   2.25604   2.25604   2.26366   2.26633
 Alpha virt. eigenvalues --    2.26633   2.27587   2.27924   2.27924   2.28079
 Alpha virt. eigenvalues --    2.28557   2.29191   2.29191   2.29894   2.30080
 Alpha virt. eigenvalues --    2.30080   2.30296   2.30414   2.30742   2.31164
 Alpha virt. eigenvalues --    2.32201   2.32201   2.32641   2.33220   2.33220
 Alpha virt. eigenvalues --    2.33662   2.33926   2.33926   2.34434   2.35125
 Alpha virt. eigenvalues --    2.35569   2.35745   2.36279   2.36279   2.36563
[...]
 Alpha virt. eigenvalues --    2.85815   2.86607   2.86607   2.87239   2.87420
 Alpha virt. eigenvalues --    2.88188   2.88188   2.88601   2.90166   2.90711
 Alpha virt. eigenvalues --    2.91155   2.91155   2.91698   2.91977   2.92118
 Alpha virt. eigenvalues --    2.92118   2.92246   2.92277   2.92417   2.92417
 Alpha virt. eigenvalues --    2.92728   2.93368   2.93640   2.93830   2.94290
 Alpha virt. eigenvalues --    2.94290   2.94862   2.94892   2.95349   2.95349
 Alpha virt. eigenvalues --    2.95523   2.95523   2.96127   2.96127   2.96328
 Alpha virt. eigenvalues --    2.96634   2.96698   2.96698   2.96801   2.97013
 Alpha virt. eigenvalues --    2.97360   2.97360   2.97873   2.98212   2.98647
 Alpha virt. eigenvalues --    2.98760   2.99211   2.99860   2.99883   2.99883
 Alpha virt. eigenvalues --    3.00440   3.01117   3.01117   3.01858   3.02879
 Alpha virt. eigenvalues --    3.02913   3.03670   3.03743   3.03975   3.03975
 Alpha virt. eigenvalues --    3.04617   3.04617   3.05199   3.05428   3.05428
 Alpha virt. eigenvalues --    3.05457   3.06630   3.06630   3.06696   3.06803
 Alpha virt. eigenvalues --    3.06859   3.06910   3.06975   3.06975   3.07326
 Alpha virt. eigenvalues --    3.07326   3.07453   3.08581   3.08608   3.08804
 Alpha virt. eigenvalues --    3.08804   3.09030   3.09211   3.09310   3.09318
 Alpha virt. eigenvalues --    3.09318   3.09714   3.10181   3.10181   3.11025
 Alpha virt. eigenvalues --    3.11025   3.11194   3.11397   3.11577   3.11876
 Alpha virt. eigenvalues --    3.11876   3.12514   3.13030   3.13084   3.13084
 Alpha virt. eigenvalues --    3.13147   3.13437   3.13437   3.13567   3.13865
 Alpha virt. eigenvalues --    3.13865   3.14390   3.14704   3.14704   3.15338
 Alpha virt. eigenvalues --    3.15338   3.15865   3.16040   3.16196   3.16709
 Alpha virt. eigenvalues --    3.16776   3.17070   3.17070   3.17082   3.17599
 Alpha virt. eigenvalues --    3.17835   3.18634   3.18634   3.18963   3.18963
 Alpha virt. eigenvalues --    3.19625   3.19625   3.19822   3.19826   3.19970
 Alpha virt. eigenvalues --    3.20076   3.20095   3.20180   3.20180   3.20648
 Alpha virt. eigenvalues --    3.21049   3.21126   3.21524   3.21524   3.21586
 Alpha virt. eigenvalues --    3.21982   3.22101   3.22104   3.22312   3.22312
 Alpha virt. eigenvalues --    3.22713   3.23153   3.23478   3.23795   3.23795
 Alpha virt. eigenvalues --    3.24414   3.24515   3.24537   3.25207   3.25207
 Alpha virt. eigenvalues --    3.25290   3.25420   3.25420   3.26343   3.26673
 Alpha virt. eigenvalues --    3.26681   3.26681   3.26967   3.26967   3.27369
 Alpha virt. eigenvalues --    3.27517   3.27517   3.27688   3.28091   3.29741
 Alpha virt. eigenvalues --    3.29759   3.29759   3.29890   3.30317   3.30317
 Alpha virt. eigenvalues --    3.30576   3.30576   3.30939   3.30972   3.31626
 Alpha virt. eigenvalues --    3.31974   3.31974   3.32500   3.33616   3.33898
 Alpha virt. eigenvalues --    3.34033   3.34490   3.34940   3.34940   3.35611
 Alpha virt. eigenvalues --    3.35611   3.37123   3.37423   3.37708   3.37708
 Alpha virt. eigenvalues --    3.37751   3.37901   3.38554   3.38843   3.38843
 Alpha virt. eigenvalues --    3.39123   3.39253   3.39260   3.40043   3.40043
 Alpha virt. eigenvalues --    3.40277   3.40909   3.40909   3.41456   3.41480
 Alpha virt. eigenvalues --    3.41480   3.41713   3.41980   3.42501   3.42501
 Alpha virt. eigenvalues --    3.42508   3.42875   3.43808   3.43808   3.43992
 Alpha virt. eigenvalues --    3.44072   3.44647   3.44647   3.44745   3.44917
 Alpha virt. eigenvalues --    3.45069   3.45217   3.45554   3.46707   3.46733
 Alpha virt. eigenvalues --    3.46778   3.46778   3.47213   3.47436   3.47436
 Alpha virt. eigenvalues --    3.47576   3.48235   3.48235   3.49222   3.49450
 Alpha virt. eigenvalues --    3.49450   3.49535   3.50223   3.50287   3.50287
 Alpha virt. eigenvalues --    3.51908   3.51908   3.51916   3.51979   3.52191
 Alpha virt. eigenvalues --    3.52642   3.52841   3.53361   3.53561   3.53561
 Alpha virt. eigenvalues --    3.54149   3.54149   3.55260   3.55556   3.55556
 Alpha virt. eigenvalues --    3.55664   3.56078   3.56478   3.56681   3.56681
 Alpha virt. eigenvalues --    3.56799   3.56923   3.56973   3.56973   3.57630
 Alpha virt. eigenvalues --    3.58097   3.58097   3.58295   3.58647   3.58746
 Alpha virt. eigenvalues --    3.58746   3.58769   3.59307   3.59307   3.59592
 Alpha virt. eigenvalues --    3.59626   3.59626   3.60045   3.60404   3.60639
 Alpha virt. eigenvalues --    3.62348   3.62747   3.62747   3.62947   3.63772
 Alpha virt. eigenvalues --    3.63837   3.64056   3.64444   3.64831   3.64939
 Alpha virt. eigenvalues --    3.64939   3.65416   3.65416   3.65723   3.65769
 Alpha virt. eigenvalues --    3.66152   3.66152   3.67178   3.67281   3.67281
 Alpha virt. eigenvalues --    3.68015   3.68332   3.68332   3.69713   3.69886
 Alpha virt. eigenvalues --    3.69886   3.70210   3.70216   3.70991   3.71688
 Alpha virt. eigenvalues --    3.71754   3.72157   3.72157   3.72694   3.72729
 Alpha virt. eigenvalues --    3.73226   3.73751   3.73751   3.73983   3.75092
 Alpha virt. eigenvalues --    3.75092   3.75198   3.75504   3.76391   3.76391
 Alpha virt. eigenvalues --    3.77311   3.77311   3.77810   3.77922   3.77922
 Alpha virt. eigenvalues --    3.79403   3.80048   3.80048   3.80967   3.81286
 Alpha virt. eigenvalues --    3.81946   3.81985   3.81985   3.82650   3.82675
 Alpha virt. eigenvalues --    3.82857   3.83235   3.83235   3.83299   3.83939
 Alpha virt. eigenvalues --    3.84747   3.84747   3.85718   3.86152   3.86152
 Alpha virt. eigenvalues --    3.87276   3.87276   3.87527   3.87760   3.88473
 Alpha virt. eigenvalues --    3.88695   3.88728   3.90626   3.91365   3.91365
 Alpha virt. eigenvalues --    3.92467   3.94440   3.94628   3.94628   3.95952
 Alpha virt. eigenvalues --    3.96845   3.98291   3.98291   3.99136   3.99661
 Alpha virt. eigenvalues --    3.99661   4.00914   4.00914   4.01166   4.01263
 Alpha virt. eigenvalues --    4.02508   4.03749   4.03801   4.03956   4.04695
 Alpha virt. eigenvalues --    4.05707   4.05707   4.05934   4.06150   4.07386
 Alpha virt. eigenvalues --    4.07386   4.08237   4.09219   4.09219   4.09625
 Alpha virt. eigenvalues --    4.09625   4.10636   4.10908   4.11215   4.11215
 Alpha virt. eigenvalues --    4.11681   4.11862   4.11862   4.15019   4.15189
 Alpha virt. eigenvalues --    4.15349   4.16002   4.16307   4.16307   4.19643
 Alpha virt. eigenvalues --    4.21945   4.21965   4.22075   4.22075   4.22868
 Alpha virt. eigenvalues --    4.23411   4.23411   4.24588   4.25077   4.25077
 Alpha virt. eigenvalues --    4.26726   4.27309   4.28484   4.28484   4.29029
 Alpha virt. eigenvalues --    4.30353   4.30353   4.31076   4.32534   4.32784
 Alpha virt. eigenvalues --    4.33443   4.33965   4.33965   4.34099   4.35404
 Alpha virt. eigenvalues --    4.35404   4.35658   4.37456   4.38794   4.38911
 Alpha virt. eigenvalues --    4.38911   4.40256   4.41775   4.42003   4.42057
 Alpha virt. eigenvalues --    4.42057   4.43650   4.43752   4.43752   4.45389
 Alpha virt. eigenvalues --    4.45389   4.47025   4.47894   4.48685   4.50379
 Alpha virt. eigenvalues --    4.51819   4.51819   4.54969   4.54969   4.55403
 Alpha virt. eigenvalues --    4.56004   4.63900   4.64225   4.64363   4.64363
 Alpha virt. eigenvalues --    4.65700   4.65700   4.69262   4.69420   4.72776
 Alpha virt. eigenvalues --    4.76574   4.76955   4.76955   4.78832   4.80485
 Alpha virt. eigenvalues --    4.80485   4.81186   4.83296   4.83296   4.84236
 Alpha virt. eigenvalues --    4.86173   4.87356   4.87704   4.88222   4.88222
 Alpha virt. eigenvalues --    4.90926   4.91241   4.94478   4.94478   4.99333
 Alpha virt. eigenvalues --    5.00163   5.00163   5.01437   5.03393   5.03393
 Alpha virt. eigenvalues --    5.03761   5.03761   5.03848   5.04054   5.04371
 Alpha virt. eigenvalues --    5.04554   5.05424   5.05492   5.06076   5.06283
 Alpha virt. eigenvalues --    5.07314   5.07314   5.08830   5.08830   5.11390
 Alpha virt. eigenvalues --    5.12111   5.13057   5.13057   5.15800   5.18970
 Alpha virt. eigenvalues --    5.18970   5.19486   5.37915   5.37951   5.37951
 Alpha virt. eigenvalues --    5.39632   5.40241   5.40295   5.40295   5.40557
 Alpha virt. eigenvalues --    5.41906   5.42335   5.46261   5.46261   5.49963
 Alpha virt. eigenvalues --    5.50868   5.51386   5.51386   5.51601   5.53520
 Alpha virt. eigenvalues --    5.54225   5.54568   5.54788   5.54788   5.59869
 Alpha virt. eigenvalues --    5.59869   5.70568   5.70568   5.71512   5.73516
 Alpha virt. eigenvalues --    5.75567   5.76135   5.76135   5.77449  21.61952
 Alpha virt. eigenvalues --   21.73138  21.73138  21.75452  21.80671  21.87930
 Alpha virt. eigenvalues --   21.87930  21.89604  21.95743  22.00801  22.06130
 Alpha virt. eigenvalues --   22.06130  22.11101  22.11101  22.12020  22.17315
 Alpha virt. eigenvalues --   22.19535  22.19681  22.19681  22.20654  22.21979
 Alpha virt. eigenvalues --   22.21979  22.22060  22.24760  22.24985  22.27181
 Alpha virt. eigenvalues --   22.27181  22.28663  22.29725  22.29725  22.30024
 Alpha virt. eigenvalues --   22.34801  22.48731  22.48731  22.48844  22.49847
 Alpha virt. eigenvalues --   22.51830  22.53710  22.54065  22.54065  22.54405
 Alpha virt. eigenvalues --   22.54999  22.60175  22.60175  22.61394  22.62754
 Alpha virt. eigenvalues --   22.62754  22.64044  22.68968  22.71861  22.75557
 Alpha virt. eigenvalues --   22.75557  22.78734  22.78734  22.85115  22.87890
 Alpha virt. eigenvalues --   23.33860  23.35261  23.37189  23.37189  23.38703
 Alpha virt. eigenvalues --   23.38703  23.41631  23.43701  32.16207  32.18191
 Alpha virt. eigenvalues --   32.18245  32.18245  32.27651  32.28447  32.28447
 Alpha virt. eigenvalues --   32.28553  32.56102  32.58679  32.58679  32.58966
 Alpha virt. eigenvalues --   32.60085  32.60742  32.62640  32.62640
          Condensed to atoms (all electrons):
 Mulliken charges:
               1
     1  C   -0.088412
     2  C   -0.088412
     3  C   -0.225255
     4  C    0.064040
     5  C    0.064040
     6  C   -0.225255
     7  C    0.508512
     8  C    0.508512
     9  N   -0.687305
    10  N   -0.560217
    11  N   -0.560217
    12  H    0.119503
    13  H    0.119503
    14  H    0.136848
    15  H    0.136848
    16  C   -0.085943
    17  C   -0.085943
    18  C   -0.212465
    19  C    0.085391
    20  C    0.085391
    21  C   -0.212465
    22  C    0.342306
    23  C    0.342306
    24  N   -0.225407
    25  N   -0.560217
    26  H    0.123934
    27  H    0.123934
    28  H    0.143070
    29  H    0.143070
    30  C   -0.085943
    31  C   -0.085943
    32  C   -0.212465
    33  C    0.085391
    34  C    0.085391
    35  C   -0.212465
    36  C    0.342306
    37  C    0.342306
    38  N   -0.225407
    39  N   -0.560217
    40  H    0.123934
    41  H    0.123934
    42  H    0.143070
    43  H    0.143070
    44  C   -0.088412
    45  C   -0.088412
    46  C   -0.225255
    47  C    0.064040
    48  C    0.064040
    49  C   -0.225255
    50  C    0.508512
    51  C    0.508512
    52  N   -0.687305
    53  H    0.119503
    54  H    0.119503
    55  H    0.136848
    56  H    0.136848
    57  H    0.210090
    58  H    0.210090
    59  C   -0.088412
    60  C   -0.088412
    61  C   -0.225255
    62  C    0.064040
    63  C    0.064040
    64  C   -0.225255
    65  C    0.508512
    66  C    0.508512
    67  N   -0.687305
    68  N   -0.560217
    69  N   -0.560217
    70  H    0.119503
    71  H    0.119503
    72  H    0.136848
    73  H    0.136848
    74  C   -0.085943
    75  C   -0.085943
    76  C   -0.212465
    77  C    0.085391
    78  C    0.085391
    79  C   -0.212465
    80  C    0.342306
    81  C    0.342306
    82  N   -0.225407
    83  N   -0.560217
    84  H    0.123934
    85  H    0.123934
    86  H    0.143070
    87  H    0.143070
    88  C   -0.085943
    89  C   -0.085943
    90  C   -0.212465
    91  C    0.085391
    92  C    0.085391
    93  C   -0.212465
    94  C    0.342306
    95  C    0.342306
    96  N   -0.225407
    97  N   -0.560217
    98  H    0.123934
    99  H    0.123934
   100  H    0.143070
   101  H    0.143070
   102  C   -0.088412
   103  C   -0.088412
   104  C   -0.225255
   105  C    0.064040
   106  C    0.064040
   107  C   -0.225255
   108  C    0.508512
   109  C    0.508512
   110  N   -0.687305
   111  H    0.119503
   112  H    0.119503
   113  H    0.136848
   114  H    0.136848
   115  H    0.210090
   116  H    0.210090
 Sum of Mulliken charges =   0.00000
 Mulliken charges with hydrogens summed into heavy atoms:
               1
     1  C    0.031091
     2  C    0.031091
     3  C   -0.088407
     4  C    0.064040
     5  C    0.064040
     6  C   -0.088407
     7  C    0.508512
     8  C    0.508512
     9  N   -0.687305
    10  N   -0.560217
    11  N   -0.560217
    16  C    0.037991
    17  C    0.037991
    18  C   -0.069394
    19  C    0.085391
    20  C    0.085391
    21  C   -0.069394
    22  C    0.342306
    23  C    0.342306
    24  N   -0.015317
    25  N   -0.560217
    30  C    0.037991
    31  C    0.037991
    32  C   -0.069394
    33  C    0.085391
    34  C    0.085391
    35  C   -0.069394
    36  C    0.342306
    37  C    0.342306
    38  N   -0.015317
    39  N   -0.560217
    44  C    0.031091
    45  C    0.031091
    46  C   -0.088407
    47  C    0.064040
    48  C    0.064040
    49  C   -0.088407
    50  C    0.508512
    51  C    0.508512
    52  N   -0.687305
    59  C    0.031091
    60  C    0.031091
    61  C   -0.088407
    62  C    0.064040
    63  C    0.064040
    64  C   -0.088407
    65  C    0.508512
    66  C    0.508512
    67  N   -0.687305
    68  N   -0.560217
    69  N   -0.560217
    74  C    0.037991
    75  C    0.037991
    76  C   -0.069394
    77  C    0.085391
    78  C    0.085391
    79  C   -0.069394
    80  C    0.342306
    81  C    0.342306
    82  N   -0.015317
    83  N   -0.560217
    88  C    0.037991
    89  C    0.037991
    90  C   -0.069394
    91  C    0.085391
    92  C    0.085391
    93  C   -0.069394
    94  C    0.342306
    95  C    0.342306
    96  N   -0.015317
    97  N   -0.560217
   102  C    0.031091
   103  C    0.031091
   104  C   -0.088407
   105  C    0.064040
   106  C    0.064040
   107  C   -0.088407
   108  C    0.508512
   109  C    0.508512
   110  N   -0.687305
 Electronic spatial extent (au):  <R**2>=          51462.3832
 Charge=              0.0000 electrons
 Dipole moment (field-independent basis, Debye):
    X=              0.0000    Y=              0.0000    Z=             -0.0000  Tot=              0.0000
 Quadrupole moment (field-independent basis, Debye-Ang):
   XX=           -391.9790   YY=           -391.9790   ZZ=           -480.5007
   XY=             -0.0000   XZ=             -0.0000   YZ=             -0.0000
 Traceless Quadrupole moment (field-independent basis, Debye-Ang):
   XX=             29.5072   YY=             29.5072   ZZ=            -59.0145
   XY=             -0.0000   XZ=             -0.0000   YZ=             -0.0000
 Octapole moment (field-independent basis, Debye-Ang**2):
  XXX=             -0.0000  YYY=             -0.0000  ZZZ=             -0.0000  XYY=             -0.0000
  XXY=              0.0000  XXZ=            -33.6953  XZZ=             -0.0000  YZZ=              0.0000
  YYZ=             33.6953  XYZ=             -0.0000
 Hexadecapole moment (field-independent basis, Debye-Ang**3):
 XXXX=         -26557.2160 YYYY=         -26557.2160 ZZZZ=         -12029.0885 XXXY=              0.0000
 XXXZ=              0.0000 YYYX=             -0.0000 YYYZ=              0.0000 ZZZX=             -0.0000
 ZZZY=             -0.0000 XXYY=          -9586.2359 XXZZ=          -7379.8439 YYZZ=          -7379.8439
 XXYZ=              0.0000 YYXZ=              0.0000 ZZXY=             -0.0000
 N-N= 1.364232687257D+04 E-N=-3.503803690593D+04  KE= 3.316015465062D+03
 Symmetry A1   KE= 9.434449443698D+02
 Symmetry A2   KE= 7.173130486210D+02
 Symmetry B1   KE= 8.276287360356D+02
 Symmetry B2   KE= 8.276287360356D+02
 Leave Link  601 at Thu May 15 17:56:30 2025, MaxMem=  8053063680 cpu:       263.6
 (Enter /opt/g09/l9999.exe)

 Test job not archived.
 1\1\ WCSS.PL-BEM-CMOKC406W\SP\RLC-BLYP TD-FC\Gen\C64H36N16\SERGEY\15-M
 ay-2025\0\\#p td(nstates=8) lc-blyp/gen iop(3/107=0400000000, 3/108=04
 00000000) geom=check guess=read\\H2Pc dimer lc-blyp(mu=0.4)/def2-tzvp(
 -f), monomer geom b3pw/631dp\\0,1\C,0,6.542878,0.701674,0.\C,0,6.54287
 8,-0.701674,0.\C,0,5.349643,1.42349,0.\C,0,4.161429,0.700602,0.\C,0,4.
 161429,-0.700602,0.\C,0,5.349643,-1.42349,0.\C,0,2.751318,1.093433,0.\
 C,0,2.751318,-1.093433,0.\N,0,1.939706,0.,0.\N,0,2.391962,-2.37706,0.\
 N,0,2.391962,2.37706,0.\H,0,7.491036,1.232091,0.\H,0,7.491036,-1.23209
 1,0.\H,0,5.340465,2.508839,0.\H,0,5.340465,-2.508839,0.\C,0,-0.703892,
 6.550134,0.\C,0,0.703892,6.550134,0.\C,0,-1.424671,5.362507,0.\C,0,-0.
 705223,4.167102,0.\C,0,0.705223,4.167102,0.\C,0,1.424671,5.362507,0.\C
 ,0,-1.141499,2.784286,0.\C,0,1.141499,2.784286,0.\N,0,0.,2.021288,0.\N
 ,0,-2.391962,2.37706,0.\H,0,-1.233211,7.498621,0.\H,0,1.233211,7.49862
 1,0.\H,0,-2.509691,5.351954,0.\H,0,2.509691,5.351954,0.\C,0,0.703892,-
 6.550134,0.\C,0,-0.703892,-6.550134,0.\C,0,1.424671,-5.362507,0.\C,0,0
 .705223,-4.167102,0.\C,0,-0.705223,-4.167102,0.\C,0,-1.424671,-5.36250
 7,0.\C,0,1.141499,-2.784286,0.\C,0,-1.141499,-2.784286,0.\N,0,0.,-2.02
 1288,0.\N,0,-2.391962,-2.37706,0.\H,0,1.233211,-7.498621,0.\H,0,-1.233
 211,-7.498621,0.\H,0,2.509691,-5.351954,0.\H,0,-2.509691,-5.351954,0.\
 C,0,-6.542878,-0.701674,0.\C,0,-6.542878,0.701674,0.\C,0,-5.349643,-1.
 42349,0.\C,0,-4.161429,-0.700602,0.\C,0,-4.161429,0.700602,0.\C,0,-5.3
 49643,1.42349,0.\C,0,-2.751318,-1.093433,0.\C,0,-2.751318,1.093433,0.\
 N,0,-1.939706,0.,0.\H,0,-7.491036,-1.232091,0.\H,0,-7.491036,1.232091,
 0.\H,0,-5.340465,-2.508839,0.\H,0,-5.340465,2.508839,0.\H,0,0.,1.00698
 3,0.\H,0,0.,-1.006983,0.\C,0,0.701674,6.542878,4.\C,0,-0.701674,6.5428
 78,4.\C,0,1.42349,5.349643,4.\C,0,0.700602,4.161429,4.\C,0,-0.700602,4
 .161429,4.\C,0,-1.42349,5.349643,4.\C,0,1.093433,2.751318,4.\C,0,-1.09
 3433,2.751318,4.\N,0,0.,1.939706,4.\N,0,-2.37706,2.391962,4.\N,0,2.377
 06,2.391962,4.\H,0,1.232091,7.491036,4.\H,0,-1.232091,7.491036,4.\H,0,
 2.508839,5.340465,4.\H,0,-2.508839,5.340465,4.\C,0,6.550134,-0.703892,
 4.\C,0,6.550134,0.703892,4.\C,0,5.362507,-1.424671,4.\C,0,4.167102,-0.
 705223,4.\C,0,4.167102,0.705223,4.\C,0,5.362507,1.424671,4.\C,0,2.7842
 86,-1.141499,4.\C,0,2.784286,1.141499,4.\N,0,2.021288,0.,4.\N,0,2.3770
 6,-2.391962,4.\H,0,7.498621,-1.233211,4.\H,0,7.498621,1.233211,4.\H,0,
 5.351954,-2.509691,4.\H,0,5.351954,2.509691,4.\C,0,-6.550134,0.703892,
 4.\C,0,-6.550134,-0.703892,4.\C,0,-5.362507,1.424671,4.\C,0,-4.167102,
 0.705223,4.\C,0,-4.167102,-0.705223,4.\C,0,-5.362507,-1.424671,4.\C,0,
 -2.784286,1.141499,4.\C,0,-2.784286,-1.141499,4.\N,0,-2.021288,0.,4.\N
 ,0,-2.37706,-2.391962,4.\H,0,-7.498621,1.233211,4.\H,0,-7.498621,-1.23
 3211,4.\H,0,-5.351954,2.509691,4.\H,0,-5.351954,-2.509691,4.\C,0,-0.70
 1674,-6.542878,4.\C,0,0.701674,-6.542878,4.\C,0,-1.42349,-5.349643,4.\
 C,0,-0.700602,-4.161429,4.\C,0,0.700602,-4.161429,4.\C,0,1.42349,-5.34
 9643,4.\C,0,-1.093433,-2.751318,4.\C,0,1.093433,-2.751318,4.\N,0,0.,-1
 .939706,4.\H,0,-1.232091,-7.491036,4.\H,0,1.232091,-7.491036,4.\H,0,-2
 .508839,-5.340465,4.\H,0,2.508839,-5.340465,4.\H,0,1.006983,0.,4.\H,0,
 -1.006983,0.,4.\\Version=ES64L-G09RevE.01\State=1-A1\HF=-3328.6540217\
 RMSD=7.462e-09\PG=D02D [2SGD(H2N4),X(C64H32N8)]\\@


 ERROR IS A HARDY PLANT... IT FLOURISHETH IN EVERY SOIL.
            MARTIN FARQUHAR TUPPER
 Job cpu time:       0 days 11 hours 37 minutes 27.9 seconds.
 File lengths (MBytes):  RWF=   8539 Int=      0 D2E=      0 Chk=   1346 Scr=      1
 Normal termination of Gaussian 09 at Thu May 15 17:56:32 2025.
