 Entering Gaussian System, Link 0=g09
 Input=H2Pc_2H_40.gjf
 Output=H2Pc_2H_40.log
 Initial command:
 /home/sergey/g09/l1.exe "/home/sergey/SCRATCH/Gau-3318.inp" -scrdir="/home/sergey/SCRATCH/"
 Entering Link 1 = /home/sergey/g09/l1.exe PID=      3319.
  
 Copyright (c) 1988,1990,1992,1993,1995,1998,2003,2009,2015,
            Gaussian, Inc.  All Rights Reserved.
  
 This is part of the Gaussian(R) 09 program.  It is based on
 the Gaussian(R) 03 system (copyright 2003, Gaussian, Inc.),
 the Gaussian(R) 98 system (copyright 1998, Gaussian, Inc.),
 the Gaussian(R) 94 system (copyright 1995, Gaussian, Inc.),
 the Gaussian 92(TM) system (copyright 1992, Gaussian, Inc.),
 the Gaussian 90(TM) system (copyright 1990, Gaussian, Inc.),
 the Gaussian 88(TM) system (copyright 1988, Gaussian, Inc.),
 the Gaussian 86(TM) system (copyright 1986, Carnegie Mellon
 University), and the Gaussian 82(TM) system (copyright 1983,
 Carnegie Mellon University). Gaussian is a federally registered
 trademark of Gaussian, Inc.
  
 This software contains proprietary and confidential information,
 including trade secrets, belonging to Gaussian, Inc.
  
 This software is provided under written license and may be
 used, copied, transmitted, or stored only in accord with that
 written license.
  
 The following legend is applicable only to US Government
 contracts under FAR:
  
                    RESTRICTED RIGHTS LEGEND
  
 Use, reproduction and disclosure by the US Government is
 subject to restrictions as set forth in subparagraphs (a)
 and (c) of the Commercial Computer Software - Restricted
 Rights clause in FAR 52.227-19.
  
 Gaussian, Inc.
 340 Quinnipiac St., Bldg. 40, Wallingford CT 06492
  
  
 ---------------------------------------------------------------
 Warning -- This program may not be used in any manner that
 competes with the business of Gaussian, Inc. or will provide
 assistance to any competitor of Gaussian, Inc.  The licensee
 of this program is prohibited from giving any competitor of
 Gaussian, Inc. access to this program.  By using this program,
 the user acknowledges that Gaussian, Inc. is engaged in the
 business of creating and licensing software in the field of
 computational chemistry and represents and warrants to the
 licensee that it is not a competitor of Gaussian, Inc. and that
 it will not use this program in any manner prohibited above.
 ---------------------------------------------------------------
  

 Cite this work as:
 Gaussian 09, Revision E.01,
 M. J. Frisch, G. W. Trucks, H. B. Schlegel, G. E. Scuseria, 
 M. A. Robb, J. R. Cheeseman, G. Scalmani, V. Barone, B. Mennucci, 
 G. A. Petersson, H. Nakatsuji, M. Caricato, X. Li, H. P. Hratchian, 
 A. F. Izmaylov, J. Bloino, G. Zheng, J. L. Sonnenberg, M. Hada, 
 M. Ehara, K. Toyota, R. Fukuda, J. Hasegawa, M. Ishida, T. Nakajima, 
 Y. Honda, O. Kitao, H. Nakai, T. Vreven, J. A. Montgomery, Jr., 
 J. E. Peralta, F. Ogliaro, M. Bearpark, J. J. Heyd, E. Brothers, 
 K. N. Kudin, V. N. Staroverov, T. Keith, R. Kobayashi, J. Normand, 
 K. Raghavachari, A. Rendell, J. C. Burant, S. S. Iyengar, J. Tomasi, 
 M. Cossi, N. Rega, J. M. Millam, M. Klene, J. E. Knox, J. B. Cross, 
 V. Bakken, C. Adamo, J. Jaramillo, R. Gomperts, R. E. Stratmann, 
 O. Yazyev, A. J. Austin, R. Cammi, C. Pomelli, J. W. Ochterski, 
 R. L. Martin, K. Morokuma, V. G. Zakrzewski, G. A. Voth, 
 P. Salvador, J. J. Dannenberg, S. Dapprich, A. D. Daniels, 
 O. Farkas, J. B. Foresman, J. V. Ortiz, J. Cioslowski, 
 and D. J. Fox, Gaussian, Inc., Wallingford CT, 2013.
 
 ******************************************
 Gaussian 09:  ES64L-G09RevE.01 30-Nov-2015
                15-May-2025 
 ******************************************
 %chk=H2Pc_2H_40.chk
 %nprocshared=6
 Will use up to    6 processors via shared memory.
 %mem=16GB
 Default route:  MaxDisk=477GB
 ----------------------------------------------------------
 #p lc-blyp/def2svp iop(3/107=0400000000, 3/108=0400000000)
 ----------------------------------------------------------
 1/38=1/1;
 2/12=2,17=6,18=5,40=1/2;
 3/5=43,7=101,11=2,16=1,25=1,30=1,74=1000402,107=400000000,108=400000000/1,2,3;
 4//1;
 5/5=2,38=5/2;
 6/7=2,8=2,9=2,10=2,28=1/1;
 99/5=1,9=1/99;
 Leave Link    1 at Thu May 15 16:59:14 2025, MaxMem=  2147483648 cpu:         0.2
 (Enter /home/sergey/g09/l101.exe)
 -----------------------------------
 H2Pc dimer, monomer geom b3pw/631dp
 -----------------------------------
 Symbolic Z-matrix:
 Charge =  0 Multiplicity = 1
 C                     0.70167   6.54288   0. 
 C                    -0.70167   6.54288   0. 
 C                     1.42349   5.34964   0. 
 C                     0.7006    4.16143   0. 
 C                    -0.7006    4.16143   0. 
 C                    -1.42349   5.34964   0. 
 C                     1.09343   2.75132   0. 
 C                    -1.09343   2.75132   0. 
 N                     0.        1.93971   0. 
 N                    -2.37706   2.39196   0. 
 N                     2.37706   2.39196   0. 
 H                     1.23209   7.49104   0. 
 H                    -1.23209   7.49104   0. 
 H                     2.50884   5.34047   0. 
 H                    -2.50884   5.34047   0. 
 C                     6.55013  -0.70389   0. 
 C                     6.55013   0.70389   0. 
 C                     5.36251  -1.42467   0. 
 C                     4.1671   -0.70522   0. 
 C                     4.1671    0.70522   0. 
 C                     5.36251   1.42467   0. 
 C                     2.78429  -1.1415    0. 
 C                     2.78429   1.1415    0. 
 N                     2.02129   0.        0. 
 N                     2.37706  -2.39196   0. 
 H                     7.49862  -1.23321   0. 
 H                     7.49862   1.23321   0. 
 H                     5.35195  -2.50969   0. 
 H                     5.35195   2.50969   0. 
 C                    -6.55013   0.70389   0. 
 C                    -6.55013  -0.70389   0. 
 C                    -5.36251   1.42467   0. 
 C                    -4.1671    0.70522   0. 
 C                    -4.1671   -0.70522   0. 
 C                    -5.36251  -1.42467   0. 
 C                    -2.78429   1.1415    0. 
 C                    -2.78429  -1.1415    0. 
 N                    -2.02129   0.        0. 
 N                    -2.37706  -2.39196   0. 
 H                    -7.49862   1.23321   0. 
 H                    -7.49862  -1.23321   0. 
 H                    -5.35195   2.50969   0. 
 H                    -5.35195  -2.50969   0. 
 C                    -0.70167  -6.54288   0. 
 C                     0.70167  -6.54288   0. 
 C                    -1.42349  -5.34964   0. 
 C                    -0.7006   -4.16143   0. 
 C                     0.7006   -4.16143   0. 
 C                     1.42349  -5.34964   0. 
 C                    -1.09343  -2.75132   0. 
 C                     1.09343  -2.75132   0. 
 N                     0.       -1.93971   0. 
 H                    -1.23209  -7.49104   0. 
 H                     1.23209  -7.49104   0. 
 H                    -2.50884  -5.34047   0. 
 H                     2.50884  -5.34047   0. 
 H                     1.00698   0.        0. 
 H                    -1.00698   0.        0. 
 C                     0.70167   6.54288   4. 
 C                    -0.70167   6.54288   4. 
 C                     1.42349   5.34964   4. 
 C                     0.7006    4.16143   4. 
 C                    -0.7006    4.16143   4. 
 C                    -1.42349   5.34964   4. 
 C                     1.09343   2.75132   4. 
 C                    -1.09343   2.75132   4. 
 N                     0.        1.93971   4. 
 N                    -2.37706   2.39196   4. 
 N                     2.37706   2.39196   4. 
 H                     1.23209   7.49104   4. 
 H                    -1.23209   7.49104   4. 
 H                     2.50884   5.34047   4. 
 H                    -2.50884   5.34047   4. 
 C                     6.55013  -0.70389   4. 
 C                     6.55013   0.70389   4. 
 C                     5.36251  -1.42467   4. 
 C                     4.1671   -0.70522   4. 
 C                     4.1671    0.70522   4. 
 C                     5.36251   1.42467   4. 
 C                     2.78429  -1.1415    4. 
 C                     2.78429   1.1415    4. 
 N                     2.02129   0.        4. 
 N                     2.37706  -2.39196   4. 
 H                     7.49862  -1.23321   4. 
 H                     7.49862   1.23321   4. 
 H                     5.35195  -2.50969   4. 
 H                     5.35195   2.50969   4. 
 C                    -6.55013   0.70389   4. 
 C                    -6.55013  -0.70389   4. 
 C                    -5.36251   1.42467   4. 
 C                    -4.1671    0.70522   4. 
 C                    -4.1671   -0.70522   4. 
 C                    -5.36251  -1.42467   4. 
 C                    -2.78429   1.1415    4. 
 C                    -2.78429  -1.1415    4. 
 N                    -2.02129   0.        4. 
 N                    -2.37706  -2.39196   4. 
 H                    -7.49862   1.23321   4. 
 H                    -7.49862  -1.23321   4. 
 H                    -5.35195   2.50969   4. 
 H                    -5.35195  -2.50969   4. 
 C                    -0.70167  -6.54288   4. 
 C                     0.70167  -6.54288   4. 
 C                    -1.42349  -5.34964   4. 
 C                    -0.7006   -4.16143   4. 
 C                     0.7006   -4.16143   4. 
 C                     1.42349  -5.34964   4. 
 C                    -1.09343  -2.75132   4. 
 C                     1.09343  -2.75132   4. 
 N                     0.       -1.93971   4. 
 H                    -1.23209  -7.49104   4. 
 H                     1.23209  -7.49104   4. 
 H                    -2.50884  -5.34047   4. 
 H                     2.50884  -5.34047   4. 
 H                     1.00698   0.        4. 
 H                    -1.00698   0.        4. 
 
 NAtoms=    116 NQM=      116 NQMF=       0 NMMI=      0 NMMIF=      0
                NMic=       0 NMicF=      0.
                    Isotopes and Nuclear Properties:
 (Nuclear quadrupole moments (NQMom) in fm**2, nuclear magnetic moments (NMagM)
  in nuclear magnetons)

  Atom         1           2           3           4           5           6           7           8           9          10
 IAtWgt=          12          12          12          12          12          12          12          12          14          14
 AtmWgt=  12.0000000  12.0000000  12.0000000  12.0000000  12.0000000  12.0000000  12.0000000  12.0000000  14.0030740  14.0030740
 NucSpn=           0           0           0           0           0           0           0           0           2           2
 AtZEff=   0.0000000   0.0000000   0.0000000   0.0000000   0.0000000   0.0000000   0.0000000   0.0000000   0.0000000   0.0000000
 NQMom=    0.0000000   0.0000000   0.0000000   0.0000000   0.0000000   0.0000000   0.0000000   0.0000000   2.0440000   2.0440000
 NMagM=    0.0000000   0.0000000   0.0000000   0.0000000   0.0000000   0.0000000   0.0000000   0.0000000   0.4037610   0.4037610
 AtZNuc=   6.0000000   6.0000000   6.0000000   6.0000000   6.0000000   6.0000000   6.0000000   6.0000000   7.0000000   7.0000000

  Atom        11          12          13          14          15          16          17          18          19          20
 IAtWgt=          14           1           1           1           1          12          12          12          12          12
 AtmWgt=  14.0030740   1.0078250   1.0078250   1.0078250   1.0078250  12.0000000  12.0000000  12.0000000  12.0000000  12.0000000
 NucSpn=           2           1           1           1           1           0           0           0           0           0
 AtZEff=   0.0000000   0.0000000   0.0000000   0.0000000   0.0000000   0.0000000   0.0000000   0.0000000   0.0000000   0.0000000
 NQMom=    2.0440000   0.0000000   0.0000000   0.0000000   0.0000000   0.0000000   0.0000000   0.0000000   0.0000000   0.0000000
 NMagM=    0.4037610   2.7928460   2.7928460   2.7928460   2.7928460   0.0000000   0.0000000   0.0000000   0.0000000   0.0000000
 AtZNuc=   7.0000000   1.0000000   1.0000000   1.0000000   1.0000000   6.0000000   6.0000000   6.0000000   6.0000000   6.0000000

  Atom        21          22          23          24          25          26          27          28          29          30
 IAtWgt=          12          12          12          14          14           1           1           1           1          12
 AtmWgt=  12.0000000  12.0000000  12.0000000  14.0030740  14.0030740   1.0078250   1.0078250   1.0078250   1.0078250  12.0000000
 NucSpn=           0           0           0           2           2           1           1           1           1           0
 AtZEff=   0.0000000   0.0000000   0.0000000   0.0000000   0.0000000   0.0000000   0.0000000   0.0000000   0.0000000   0.0000000
 NQMom=    0.0000000   0.0000000   0.0000000   2.0440000   2.0440000   0.0000000   0.0000000   0.0000000   0.0000000   0.0000000
 NMagM=    0.0000000   0.0000000   0.0000000   0.4037610   0.4037610   2.7928460   2.7928460   2.7928460   2.7928460   0.0000000
 AtZNuc=   6.0000000   6.0000000   6.0000000   7.0000000   7.0000000   1.0000000   1.0000000   1.0000000   1.0000000   6.0000000

  Atom        31          32          33          34          35          36          37          38          39          40
 IAtWgt=          12          12          12          12          12          12          12          14          14           1
 AtmWgt=  12.0000000  12.0000000  12.0000000  12.0000000  12.0000000  12.0000000  12.0000000  14.0030740  14.0030740   1.0078250
 NucSpn=           0           0           0           0           0           0           0           2           2           1
 AtZEff=   0.0000000   0.0000000   0.0000000   0.0000000   0.0000000   0.0000000   0.0000000   0.0000000   0.0000000   0.0000000
 NQMom=    0.0000000   0.0000000   0.0000000   0.0000000   0.0000000   0.0000000   0.0000000   2.0440000   2.0440000   0.0000000
 NMagM=    0.0000000   0.0000000   0.0000000   0.0000000   0.0000000   0.0000000   0.0000000   0.4037610   0.4037610   2.7928460
 AtZNuc=   6.0000000   6.0000000   6.0000000   6.0000000   6.0000000   6.0000000   6.0000000   7.0000000   7.0000000   1.0000000

  Atom        41          42          43          44          45          46          47          48          49          50
 IAtWgt=           1           1           1          12          12          12          12          12          12          12
 AtmWgt=   1.0078250   1.0078250   1.0078250  12.0000000  12.0000000  12.0000000  12.0000000  12.0000000  12.0000000  12.0000000
 NucSpn=           1           1           1           0           0           0           0           0           0           0
 AtZEff=   0.0000000   0.0000000   0.0000000   0.0000000   0.0000000   0.0000000   0.0000000   0.0000000   0.0000000   0.0000000
 NQMom=    0.0000000   0.0000000   0.0000000   0.0000000   0.0000000   0.0000000   0.0000000   0.0000000   0.0000000   0.0000000
 NMagM=    2.7928460   2.7928460   2.7928460   0.0000000   0.0000000   0.0000000   0.0000000   0.0000000   0.0000000   0.0000000
 AtZNuc=   1.0000000   1.0000000   1.0000000   6.0000000   6.0000000   6.0000000   6.0000000   6.0000000   6.0000000   6.0000000

  Atom        51          52          53          54          55          56          57          58          59          60
 IAtWgt=          12          14           1           1           1           1           1           1          12          12
 AtmWgt=  12.0000000  14.0030740   1.0078250   1.0078250   1.0078250   1.0078250   1.0078250   1.0078250  12.0000000  12.0000000
 NucSpn=           0           2           1           1           1           1           1           1           0           0
 AtZEff=   0.0000000   0.0000000   0.0000000   0.0000000   0.0000000   0.0000000   0.0000000   0.0000000   0.0000000   0.0000000
 NQMom=    0.0000000   2.0440000   0.0000000   0.0000000   0.0000000   0.0000000   0.0000000   0.0000000   0.0000000   0.0000000
 NMagM=    0.0000000   0.4037610   2.7928460   2.7928460   2.7928460   2.7928460   2.7928460   2.7928460   0.0000000   0.0000000
 AtZNuc=   6.0000000   7.0000000   1.0000000   1.0000000   1.0000000   1.0000000   1.0000000   1.0000000   6.0000000   6.0000000

  Atom        61          62          63          64          65          66          67          68          69          70
 IAtWgt=          12          12          12          12          12          12          14          14          14           1
 AtmWgt=  12.0000000  12.0000000  12.0000000  12.0000000  12.0000000  12.0000000  14.0030740  14.0030740  14.0030740   1.0078250
 NucSpn=           0           0           0           0           0           0           2           2           2           1
 AtZEff=   0.0000000   0.0000000   0.0000000   0.0000000   0.0000000   0.0000000   0.0000000   0.0000000   0.0000000   0.0000000
 NQMom=    0.0000000   0.0000000   0.0000000   0.0000000   0.0000000   0.0000000   2.0440000   2.0440000   2.0440000   0.0000000
 NMagM=    0.0000000   0.0000000   0.0000000   0.0000000   0.0000000   0.0000000   0.4037610   0.4037610   0.4037610   2.7928460
 AtZNuc=   6.0000000   6.0000000   6.0000000   6.0000000   6.0000000   6.0000000   7.0000000   7.0000000   7.0000000   1.0000000

  Atom        71          72          73          74          75          76          77          78          79          80
 IAtWgt=           1           1           1          12          12          12          12          12          12          12
 AtmWgt=   1.0078250   1.0078250   1.0078250  12.0000000  12.0000000  12.0000000  12.0000000  12.0000000  12.0000000  12.0000000
 NucSpn=           1           1           1           0           0           0           0           0           0           0
 AtZEff=   0.0000000   0.0000000   0.0000000   0.0000000   0.0000000   0.0000000   0.0000000   0.0000000   0.0000000   0.0000000
 NQMom=    0.0000000   0.0000000   0.0000000   0.0000000   0.0000000   0.0000000   0.0000000   0.0000000   0.0000000   0.0000000
 NMagM=    2.7928460   2.7928460   2.7928460   0.0000000   0.0000000   0.0000000   0.0000000   0.0000000   0.0000000   0.0000000
 AtZNuc=   1.0000000   1.0000000   1.0000000   6.0000000   6.0000000   6.0000000   6.0000000   6.0000000   6.0000000   6.0000000

  Atom        81          82          83          84          85          86          87          88          89          90
 IAtWgt=          12          14          14           1           1           1           1          12          12          12
 AtmWgt=  12.0000000  14.0030740  14.0030740   1.0078250   1.0078250   1.0078250   1.0078250  12.0000000  12.0000000  12.0000000
 NucSpn=           0           2           2           1           1           1           1           0           0           0
 AtZEff=   0.0000000   0.0000000   0.0000000   0.0000000   0.0000000   0.0000000   0.0000000   0.0000000   0.0000000   0.0000000
 NQMom=    0.0000000   2.0440000   2.0440000   0.0000000   0.0000000   0.0000000   0.0000000   0.0000000   0.0000000   0.0000000
 NMagM=    0.0000000   0.4037610   0.4037610   2.7928460   2.7928460   2.7928460   2.7928460   0.0000000   0.0000000   0.0000000
 AtZNuc=   6.0000000   7.0000000   7.0000000   1.0000000   1.0000000   1.0000000   1.0000000   6.0000000   6.0000000   6.0000000

  Atom        91          92          93          94          95          96          97          98          99         100
 IAtWgt=          12          12          12          12          12          14          14           1           1           1
 AtmWgt=  12.0000000  12.0000000  12.0000000  12.0000000  12.0000000  14.0030740  14.0030740   1.0078250   1.0078250   1.0078250
 NucSpn=           0           0           0           0           0           2           2           1           1           1
 AtZEff=   0.0000000   0.0000000   0.0000000   0.0000000   0.0000000   0.0000000   0.0000000   0.0000000   0.0000000   0.0000000
 NQMom=    0.0000000   0.0000000   0.0000000   0.0000000   0.0000000   2.0440000   2.0440000   0.0000000   0.0000000   0.0000000
 NMagM=    0.0000000   0.0000000   0.0000000   0.0000000   0.0000000   0.4037610   0.4037610   2.7928460   2.7928460   2.7928460
 AtZNuc=   6.0000000   6.0000000   6.0000000   6.0000000   6.0000000   7.0000000   7.0000000   1.0000000   1.0000000   1.0000000

  Atom       101         102         103         104         105         106         107         108         109         110
 IAtWgt=           1          12          12          12          12          12          12          12          12          14
 AtmWgt=   1.0078250  12.0000000  12.0000000  12.0000000  12.0000000  12.0000000  12.0000000  12.0000000  12.0000000  14.0030740
 NucSpn=           1           0           0           0           0           0           0           0           0           2
 AtZEff=   0.0000000   0.0000000   0.0000000   0.0000000   0.0000000   0.0000000   0.0000000   0.0000000   0.0000000   0.0000000
 NQMom=    0.0000000   0.0000000   0.0000000   0.0000000   0.0000000   0.0000000   0.0000000   0.0000000   0.0000000   2.0440000
 NMagM=    2.7928460   0.0000000   0.0000000   0.0000000   0.0000000   0.0000000   0.0000000   0.0000000   0.0000000   0.4037610
 AtZNuc=   1.0000000   6.0000000   6.0000000   6.0000000   6.0000000   6.0000000   6.0000000   6.0000000   6.0000000   7.0000000

  Atom       111         112         113         114         115         116
 IAtWgt=           1           1           1           1           1           1
 AtmWgt=   1.0078250   1.0078250   1.0078250   1.0078250   1.0078250   1.0078250
 NucSpn=           1           1           1           1           1           1
 AtZEff=   0.0000000   0.0000000   0.0000000   0.0000000   0.0000000   0.0000000
 NQMom=    0.0000000   0.0000000   0.0000000   0.0000000   0.0000000   0.0000000
 NMagM=    2.7928460   2.7928460   2.7928460   2.7928460   2.7928460   2.7928460
 AtZNuc=   1.0000000   1.0000000   1.0000000   1.0000000   1.0000000   1.0000000
 Leave Link  101 at Thu May 15 16:59:14 2025, MaxMem=  2147483648 cpu:         0.5
 (Enter /home/sergey/g09/l202.exe)
 Stoichiometry    C64H36N16
 Framework group  D2H[SG(N4),SG'(H4N4),X(C64H32N8)]
 Deg. of freedom    45
 Full point group                 D2H     NOp   8
 Largest Abelian subgroup         D2H     NOp   8
 Largest concise Abelian subgroup D2H     NOp   8
                         Standard orientation:                         
 ---------------------------------------------------------------------
 Center     Atomic      Atomic             Coordinates (Angstroms)
 Number     Number       Type             X           Y           Z
 ---------------------------------------------------------------------
      1          6           0       -0.701674    6.542878    2.000000
      2          6           0        0.701674    6.542878    2.000000
      3          6           0       -1.423490    5.349643    2.000000
      4          6           0       -0.700602    4.161429    2.000000
      5          6           0        0.700602    4.161429    2.000000
      6          6           0        1.423490    5.349643    2.000000
      7          6           0       -1.093433    2.751318    2.000000
      8          6           0        1.093433    2.751318    2.000000
      9          7           0        0.000000    1.939706    2.000000
     10          7           0        2.377060    2.391962    2.000000
     11          7           0       -2.377060    2.391962    2.000000
     12          1           0       -1.232091    7.491036    2.000000
     13          1           0        1.232091    7.491036    2.000000
     14          1           0       -2.508839    5.340465    2.000000
     15          1           0        2.508839    5.340465    2.000000
     16          6           0       -6.550134   -0.703892    2.000000
     17          6           0       -6.550134    0.703892    2.000000
     18          6           0       -5.362507   -1.424671    2.000000
     19          6           0       -4.167102   -0.705223    2.000000
     20          6           0       -4.167102    0.705223    2.000000
     21          6           0       -5.362507    1.424671    2.000000
     22          6           0       -2.784286   -1.141499    2.000000
     23          6           0       -2.784286    1.141499    2.000000
     24          7           0       -2.021288    0.000000    2.000000
     25          7           0       -2.377060   -2.391962    2.000000
     26          1           0       -7.498621   -1.233211    2.000000
     27          1           0       -7.498621    1.233211    2.000000
     28          1           0       -5.351954   -2.509691    2.000000
     29          1           0       -5.351954    2.509691    2.000000
     30          6           0        6.550134    0.703892    2.000000
     31          6           0        6.550134   -0.703892    2.000000
     32          6           0        5.362507    1.424671    2.000000
     33          6           0        4.167102    0.705223    2.000000
     34          6           0        4.167102   -0.705223    2.000000
     35          6           0        5.362507   -1.424671    2.000000
     36          6           0        2.784286    1.141499    2.000000
     37          6           0        2.784286   -1.141499    2.000000
     38          7           0        2.021288   -0.000000    2.000000
     39          7           0        2.377060   -2.391962    2.000000
     40          1           0        7.498621    1.233211    2.000000
     41          1           0        7.498621   -1.233211    2.000000
     42          1           0        5.351954    2.509691    2.000000
     43          1           0        5.351954   -2.509691    2.000000
     44          6           0        0.701674   -6.542878    2.000000
     45          6           0       -0.701674   -6.542878    2.000000
     46          6           0        1.423490   -5.349643    2.000000
     47          6           0        0.700602   -4.161429    2.000000
     48          6           0       -0.700602   -4.161429    2.000000
     49          6           0       -1.423490   -5.349643    2.000000
     50          6           0        1.093433   -2.751318    2.000000
     51          6           0       -1.093433   -2.751318    2.000000
     52          7           0       -0.000000   -1.939706    2.000000
     53          1           0        1.232091   -7.491036    2.000000
     54          1           0       -1.232091   -7.491036    2.000000
     55          1           0        2.508839   -5.340465    2.000000
     56          1           0       -2.508839   -5.340465    2.000000
     57          1           0       -1.006983    0.000000    2.000000
     58          1           0        1.006983   -0.000000    2.000000
     59          6           0       -0.701674    6.542878   -2.000000
     60          6           0        0.701674    6.542878   -2.000000
     61          6           0       -1.423490    5.349643   -2.000000
     62          6           0       -0.700602    4.161429   -2.000000
     63          6           0        0.700602    4.161429   -2.000000
     64          6           0        1.423490    5.349643   -2.000000
     65          6           0       -1.093433    2.751318   -2.000000
     66          6           0        1.093433    2.751318   -2.000000
     67          7           0        0.000000    1.939706   -2.000000
     68          7           0        2.377060    2.391962   -2.000000
     69          7           0       -2.377060    2.391962   -2.000000
     70          1           0       -1.232091    7.491036   -2.000000
     71          1           0        1.232091    7.491036   -2.000000
     72          1           0       -2.508839    5.340465   -2.000000
     73          1           0        2.508839    5.340465   -2.000000
     74          6           0       -6.550134   -0.703892   -2.000000
     75          6           0       -6.550134    0.703892   -2.000000
     76          6           0       -5.362507   -1.424671   -2.000000
     77          6           0       -4.167102   -0.705223   -2.000000
     78          6           0       -4.167102    0.705223   -2.000000
     79          6           0       -5.362507    1.424671   -2.000000
     80          6           0       -2.784286   -1.141499   -2.000000
     81          6           0       -2.784286    1.141499   -2.000000
     82          7           0       -2.021288    0.000000   -2.000000
     83          7           0       -2.377060   -2.391962   -2.000000
     84          1           0       -7.498621   -1.233211   -2.000000
     85          1           0       -7.498621    1.233211   -2.000000
     86          1           0       -5.351954   -2.509691   -2.000000
     87          1           0       -5.351954    2.509691   -2.000000
     88          6           0        6.550134    0.703892   -2.000000
     89          6           0        6.550134   -0.703892   -2.000000
     90          6           0        5.362507    1.424671   -2.000000
     91          6           0        4.167102    0.705223   -2.000000
     92          6           0        4.167102   -0.705223   -2.000000
     93          6           0        5.362507   -1.424671   -2.000000
     94          6           0        2.784286    1.141499   -2.000000
     95          6           0        2.784286   -1.141499   -2.000000
     96          7           0        2.021288    0.000000   -2.000000
     97          7           0        2.377060   -2.391962   -2.000000
     98          1           0        7.498621    1.233211   -2.000000
     99          1           0        7.498621   -1.233211   -2.000000
    100          1           0        5.351954    2.509691   -2.000000
    101          1           0        5.351954   -2.509691   -2.000000
    102          6           0        0.701674   -6.542878   -2.000000
    103          6           0       -0.701674   -6.542878   -2.000000
    104          6           0        1.423490   -5.349643   -2.000000
    105          6           0        0.700602   -4.161429   -2.000000
    106          6           0       -0.700602   -4.161429   -2.000000
    107          6           0       -1.423490   -5.349643   -2.000000
    108          6           0        1.093433   -2.751318   -2.000000
    109          6           0       -1.093433   -2.751318   -2.000000
    110          7           0       -0.000000   -1.939706   -2.000000
    111          1           0        1.232091   -7.491036   -2.000000
    112          1           0       -1.232091   -7.491036   -2.000000
    113          1           0        2.508839   -5.340465   -2.000000
    114          1           0       -2.508839   -5.340465   -2.000000
    115          1           0       -1.006983    0.000000   -2.000000
    116          1           0        1.006983    0.000000   -2.000000
 ---------------------------------------------------------------------
 Rotational constants (GHZ):      0.0328767      0.0327724      0.0223954
 Leave Link  202 at Thu May 15 16:59:14 2025, MaxMem=  2147483648 cpu:         0.1
 (Enter /home/sergey/g09/l301.exe)
 Standard basis: def2SVP (5D, 7F)
 Ernie: Thresh=  0.10000D-02 Tol=  0.10000D-05 Strict=F.
 There are   181 symmetry adapted cartesian basis functions of AG  symmetry.
 There are   164 symmetry adapted cartesian basis functions of B1G symmetry.
 There are   174 symmetry adapted cartesian basis functions of B2G symmetry.
 There are   171 symmetry adapted cartesian basis functions of B3G symmetry.
 There are   164 symmetry adapted cartesian basis functions of AU  symmetry.
 There are   181 symmetry adapted cartesian basis functions of B1U symmetry.
 There are   171 symmetry adapted cartesian basis functions of B2U symmetry.
 There are   174 symmetry adapted cartesian basis functions of B3U symmetry.
 There are   170 symmetry adapted basis functions of AG  symmetry.
 There are   155 symmetry adapted basis functions of B1G symmetry.
 There are   164 symmetry adapted basis functions of B2G symmetry.
 There are   161 symmetry adapted basis functions of B3G symmetry.
 There are   155 symmetry adapted basis functions of AU  symmetry.
 There are   170 symmetry adapted basis functions of B1U symmetry.
 There are   161 symmetry adapted basis functions of B2U symmetry.
 There are   164 symmetry adapted basis functions of B3U symmetry.
  1300 basis functions,  2252 primitive gaussians,  1380 cartesian basis functions
   266 alpha electrons      266 beta electrons
       nuclear repulsion energy     13642.3311254359 Hartrees.
 IExCor=10402 DFT=T Ex=LC-B+HF Corr=LYP ExCW=0 ScaHFX=  1.000000
 ScaDFX=  1.000000  1.000000  1.000000  1.000000 ScalE2=  1.000000  1.000000
 IRadAn=      0 IRanWt=     -1 IRanGd=            0 ICorTp=0 IEmpDi=  4
  HFx wShort=  0.000000 wLong=  0.400000 cFull=  0.000000 cShort=  0.000000 cLong=  1.000000
  DFx wShort=  0.000000 wLong=  0.400000 cFull=  0.000000 cShort=  0.000000 cLong=  1.000000
 NAtoms=  116 NActive=  116 NUniq=   16 SFac= 4.00D+00 NAtFMM=   60 NAOKFM=T Big=F
 Integral buffers will be    131072 words long.
 Raffenetti 2 integral format.
 Two-electron integral symmetry is turned on.
 Leave Link  301 at Thu May 15 16:59:15 2025, MaxMem=  2147483648 cpu:         0.8
 (Enter /home/sergey/g09/l302.exe)
 NPDir=0 NMtPBC=     1 NCelOv=     1 NCel=       1 NClECP=     1 NCelD=      1
         NCelK=      1 NCelE2=     1 NClLst=     1 CellRange=     0.0.
 One-electron integrals computed using PRISM.
 One-electron integral symmetry used in STVInt
   8 Symmetry operations used in ECPInt.
 ECPInt:  NShTT=  173166 NPrTT=  651518 LenC2=  125775 LenP2D=  278620.
 LDataN:  DoStor=T MaxTD1= 4 Len=   56
 NBasis=  1300 RedAO= T EigKep=  6.88D-05  NBF=   170   155   164   161   155   170   161   164
 NBsUse=  1300 1.00D-06 EigRej= -1.00D+00 NBFU=   170   155   164   161   155   170   161   164
 Precomputing XC quadrature grid using
 IXCGrd= 4 IRadAn=           0 IRanWt=          -1 IRanGd=           0 AccXCQ= 0.00D+00.
 Generated NRdTot=       0 NPtTot=           0 NUsed=           0 NTot=          32
 NSgBfM=  1092  1092  1092  1092  1092 MxSgAt=   116 MxSgA2=   116.
 Leave Link  302 at Thu May 15 16:59:17 2025, MaxMem=  2147483648 cpu:        13.8
 (Enter /home/sergey/g09/l303.exe)
 DipDrv:  MaxL=1.
 Leave Link  303 at Thu May 15 16:59:18 2025, MaxMem=  2147483648 cpu:         1.6
 (Enter /home/sergey/g09/l401.exe)
 ExpMin= 1.22D-01 ExpMax= 1.71D+03 ExpMxC= 2.58D+02 IAcc=1 IRadAn=         1 AccDes= 0.00D+00
 Harris functional with IExCor=10402 and IRadAn=       1 diagonalized for initial guess.
 HarFok:  IExCor=10402 AccDes= 0.00D+00 IRadAn=         1 IDoV= 1 UseB2=F ITyADJ=14
 ICtDFT=  3500011 ScaDFX=  1.000000  1.000000  1.000000  1.000000
 FoFCou: FMM=F IPFlag=           0 FMFlag=      100000 FMFlg1=        2000
         NFxFlg=           0 DoJE=T BraDBF=F KetDBF=T FulRan=T
         wScrn=  0.000000 ICntrl=     500 IOpCl=  0 I1Cent=   200000004 NGrid=           0
         NMat0=    1 NMatS0=      1 NMatT0=    0 NMatD0=    1 NMtDS0=    0 NMtDT0=    0
 Petite list used in FoFCou.
 Harris En= -3220.00367568568    
 JPrj=0 DoOrth=F DoCkMO=F.
 Initial guess orbital symmetries:
       Occupied  (B2G) (B3U) (B1U) (AG) (B2G) (AU) (B1U) (B3U)
                 (B3G) (AG) (B2U) (B1G) (B1U) (AG) (B3G) (B2U)
                 (AU) (B3G) (B1G) (B2U) (B2G) (B1U) (B3U) (AU)
                 (AG) (B2G) (B1G) (B3U) (B1U) (B3G) (B2U) (AG)
                 (B2G) (B1U) (AU) (B3G) (B3U) (AG) (B1G) (B2U)
                 (B3G) (B1U) (AU) (B2G) (B2U) (AG) (B1G) (B3U)
                 (B3G) (B1U) (B2G) (AU) (B2U) (B1G) (B3U) (AG)
                 (B2G) (AU) (B1U) (B3G) (B1G) (B2U) (B3U) (AG)
                 (AU) (B3G) (B1G) (B2U) (B2G) (B1U) (B3U) (AG)
                 (AU) (B2G) (B1G) (B3U) (B1U) (B3G) (AG) (B2U)
                 (AG) (B1U) (B3U) (B2G) (B2U) (B3G) (AG) (B1U)
                 (B1G) (AU) (B2U) (B3G) (B3U) (B2G) (AG) (B1U)
                 (AG) (B1U) (B3U) (B2G) (B2U) (B3G) (AG) (B1U)
                 (B1G) (AU) (B2U) (AG) (B3U) (B3G) (B1U) (B2G)
                 (B3U) (B1G) (B2G) (AU) (B2U) (B3G) (AG) (B1U)
                 (B1G) (AU) (B2U) (B3G) (B3U) (B2G) (AG) (B1U)
                 (B3U) (B2G) (B2U) (AG) (B3G) (B1U) (B1G) (AU)
                 (AG) (B1U) (B2U) (B3G) (B3U) (B2G) (B1G) (AU)
                 (AG) (B1U) (B1G) (AU) (B3U) (B2G) (B2U) (B3G)
                 (AG) (B1U) (B2U) (B3G) (B3U) (B2G) (AG) (B1U)
                 (B3U) (B2G) (B2U) (B3G) (AG) (B1G) (B1U) (AU)
                 (B1G) (AU) (B2U) (B3U) (B3G) (B2G) (AG) (B1U)
                 (B3U) (B2G) (B1G) (AU) (B1G) (B2U) (AU) (B3G)
                 (B3U) (B2G) (AG) (B1U) (AG) (B1G) (AU) (B2U) (B3G)
                 (B3U) (B1U) (B2U) (AG) (B1U) (B2G) (B3G) (AG)
                 (B3U) (B2G) (B1U) (B1G) (AU) (B2U) (B3G) (B3U)
                 (B2G) (AG) (B1G) (AU) (B3U) (B2U) (AG) (B1U) (B1G)
                 (B1U) (B2U) (B3G) (B2G) (B3U) (B2G) (B3G) (AG)
                 (B1U) (AU) (AG) (B1U) (B2U) (B3U) (B3G) (B2G)
                 (B1G) (AG) (B1U) (AU) (B2U) (B3G) (B1G) (B2U)
                 (B3U) (AG) (AG) (AU) (B1U) (B3G) (B2G) (B3U) (B2G)
                 (B2U) (B3U) (B1U) (B3G) (AG) (B2U) (B2G) (B1U)
                 (B1G) (AU) (B3G) (AG) (B1U) (B1G) (AU)
       Virtual   (B3U) (B2U) (B2G) (B3G) (B1G) (AG) (AG) (B3U)
                 (B2U) (AU) (B1U) (B2G) (B1U) (B3G) (B1G) (B3U)
                 (B2U) (AU) (B2G) (B3G) (B1G) (AG) (B3U) (B2U)
                 (AG) (AU) (AG) (B1U) (B1G) (B1U) (B2G) (B3G) (B3U)
                 (B2U) (B1U) (AU) (AG) (B3U) (B1G) (AG) (B2G) (B3G)
                 (B2U) (B2G) (B3U) (B3G) (B2U) (B1U) (AU) (B1G)
                 (AG) (B1U) (B3U) (B2G) (B3G) (B1G) (AG) (B2U)
                 (B1U) (B3U) (AU) (B2U) (AU) (AG) (B1G) (B1G) (B3U)
                 (B2U) (B2G) (B1U) (AU) (B3G) (B2G) (B3G) (AG)
                 (AU) (B1G) (AU) (B2G) (B3G) (B1G) (AG) (B2U) (B3U)
                 (B1U) (B3U) (B2U) (B1G) (B1U) (AG) (B3G) (AU)
                 (B2U) (B2G) (B3U) (B3U) (B1G) (B2G) (B1U) (B2U)
                 (B3G) (B1G) (AU) (AU) (B1U) (AG) (B3U) (B2G) (AG)
                 (B3G) (B2G) (B2U) (B3U) (B1G) (B2U) (AG) (B3G)
                 (B1U) (AG) (B3U) (B2U) (B1G) (AG) (B1U) (B2G)
                 (AG) (B3G) (B3U) (B2U) (B1U) (AU) (B2G) (B3U)
                 (AG) (B3U) (B1U) (B2U) (B3G) (AU) (AG) (B1U) (B1G)
                 (B1G) (B2U) (B2G) (B3G) (B2G) (B1U) (AU) (B1G)
                 (AG) (B3U) (B3G) (AU) (AG) (B3G) (B1U) (AG) (B2G)
                 (B2U) (B3U) (B2U) (B2G) (AU) (AG) (B1U) (B2U)
                 (B3U) (B3G) (B1G) (B2G) (AG) (B3U) (B1G) (B1U)
                 (AU) (AG) (AU) (B1U) (AG) (B2U) (B1G) (B3U) (B3G)
                 (B2U) (B3U) (B2U) (B2G) (B3U) (B1G) (B3G) (AG)
                 (AG) (B2U) (B3U) (B1G) (B2G) (B1G) (AU) (AU) (B2U)
                 (B1U) (AG) (B3U) (B2U) (B3G) (B1G) (B2G) (B3G)
                 (B1G) (B1U) (B3U) (AU) (B1U) (B2G) (B2G) (B3G)
                 (AG) (AU) (B3G) (B1G) (B1U) (B3U) (B2G) (AU) (B2U)
                 (B3U) (B2U) (AG) (B1G) (AU) (B2G) (B3G) (B2U)
                 (B3U) (AG) (B1G) (AG) (B1U) (B3U) (B2U) (AU) (B1G)
                 (B3G) (B1G) (B2G) (AG) (B3U) (B2U) (B1U) (AG)
                 (B1U) (B2G) (B3G) (B1U) (B2U) (B3U) (B2U) (B2G)
                 (B1U) (B1G) (AU) (B3G) (B1G) (AG) (B3U) (B3G)
                 (B1U) (B2G) (AU) (B3G) (B1U) (B3U) (B2G) (AG)
                 (B1U) (AU) (B1G) (AU) (B2G) (B3G) (B2U) (AU) (B3G)
                 (AG) (AU) (B3U) (B1G) (B2U) (B2G) (B2U) (B3U)
                 (AG) (B1U) (B1G) (B2G) (B1G) (AU) (B2U) (B3G)
                 (B3U) (B2G) (B1G) (B1U) (AG) (B3G) (B1G) (B2G)
                 (B1U) (AU) (B3G) (B2U) (B1U) (AG) (B3U) (B1U)
                 (AU) (B2U) (B3U) (B2G) (B3G) (AU) (B1U) (B3G)
                 (B1G) (B2U) (B2G) (B1G) (AG) (AU) (B1G) (B3U)
                 (B3G) (AG) (B3U) (B2U) (B2G) (B2U) (AU) (B1G)
                 (B3U) (AG) (B1U) (B2U) (B1G) (B3G) (B3U) (B2G)
                 (AU) (B3G) (AU) (AG) (B1U) (B2G) (B3G) (B2U) (AU)
                 (B1U) (B3U) (B1G) (AG) (B2G) (B3G) (B2G) (B1U)
                 (AG) (AU) (B3U) (AG) (B2G) (B3G) (B2U) (B1G) (AU)
                 (B1U) (AU) (B3U) (B2U) (B1U) (B1U) (B3G) (B2G)
                 (B1G) (B3U) (B1G) (B2G) (B3G) (B1U) (B1U) (AG)
                 (B2G) (B2U) (B3G) (B1G) (AG) (B3U) (B1G) (AU)
                 (B3G) (AU) (B2G) (B3G) (B2U) (B1U) (AU) (B3U)
                 (B2U) (B1G) (B2G) (AU) (AG) (B2U) (B1U) (AG) (B2U)
                 (B3U) (AG) (B1U) (B3U) (AU) (B2G) (B3G) (B3U)
                 (B3G) (B2G) (B1G) (AU) (B2U) (AU) (B3G) (B2G)
                 (AG) (B1G) (B1U) (B1U) (B3G) (AG) (B1G) (B3U)
                 (B2G) (B2U) (B3G) (B3U) (B2U) (AU) (B1U) (B2G)
                 (AU) (B1G) (B1U) (AG) (B2G) (B3G) (AU) (B2G) (B3G)
                 (AU) (B1G) (AG) (B1U) (B3U) (AG) (B2U) (AG) (AG)
                 (B3U) (B2U) (B1U) (B1U) (AG) (B3U) (B2G) (B3G)
                 (B2U) (B2G) (B3U) (B3G) (B1U) (AG) (B1U) (B2U)
                 (B2U) (B3G) (B1U) (B1G) (AG) (B3U) (B2U) (B1G)
                 (AU) (B2G) (AU) (B2G) (B3G) (AU) (AG) (AG) (B3U)
                 (B2U) (B3U) (B1U) (B3G) (AG) (B2U) (B1G) (AG)
                 (B3U) (B1U) (B2G) (B1U) (B1G) (B2G) (B3G) (B3G)
                 (B3U) (B1G) (B2G) (B2U) (AU) (AG) (B1U) (B3G)
                 (B2G) (B1G) (B1U) (AU) (B1U) (B3U) (AU) (B2G)
                 (AG) (B1G) (B2U) (B3U) (B2U) (AG) (B2G) (B1U)
                 (B3U) (B1U) (B3G) (B2G) (AU) (B3G) (AG) (B1G)
                 (B1G) (AU) (B1G) (B1U) (AG) (B3U) (B2U) (B3G)
                 (B2U) (AU) (B3U) (B2G) (B1U) (AU) (B3G) (B1G)
                 (AG) (B2U) (B3U) (B2G) (B3G) (AU) (B2G) (B1U)
                 (AU) (B1G) (B2U) (B3G) (B3U) (B1U) (AU) (B2G)
                 (AG) (B3U) (B3G) (B2G) (B1U) (B2U) (B1G) (B2G)
                 (B2U) (AG) (AU) (B3G) (AG) (B3U) (AG) (B1G) (B2U)
                 (B1G) (B3U) (B2U) (B3G) (B1U) (B1U) (B2G) (AG)
                 (B1U) (B3G) (B1G) (AG) (B3U) (B1U) (B1G) (B3U)
                 (B2U) (AU) (AG) (B2U) (AG) (B3U) (AU) (B2G) (B2U)
                 (AG) (B3G) (B3U) (AG) (B2U) (B2G) (B1U) (B1G)
                 (B3G) (B3U) (B2U) (B1U) (B1G) (AG) (B1G) (B3U)
                 (B2U) (B1G) (B1U) (B1U) (B2G) (B3G) (AU) (B2G)
                 (AU) (B1G) (B1U) (B3G) (B2G) (AG) (B3G) (B2G)
                 (AU) (B3U) (B2U) (AU) (B3G) (AU) (B1U) (B3G) (B2G)
                 (AU) (B3G) (B1U) (AG) (AG) (B3U) (B2G) (B3U) (AU)
                 (AG) (B2U) (B3U) (B1U) (B1G) (B1U) (B2G) (B2U)
                 (B1G) (B2G) (B3G) (B1U) (B1G) (B3U) (AG) (AU)
                 (AG) (B2U) (AG) (B3G) (B3U) (AU) (B1U) (B3U) (B2G)
                 (AG) (B2U) (B2G) (AU) (B2U) (B1U) (B3G) (B1U)
                 (B2G) (AG) (B1G) (B1U) (B2U) (B3U) (B1G) (B2G)
                 (B3G) (AG) (B1G) (AG) (B3G) (B3U) (B1U) (AU) (B2U)
                 (B1U) (B2G) (AU) (B3G) (B2U) (B1U) (AU) (B2U)
                 (B2G) (B3G) (AG) (B3U) (AG) (B1G) (AG) (B2G) (B3U)
                 (B3G) (B1U) (B1U) (B3G) (AU) (B1G) (B3U) (B2U)
                 (B1U) (B2G) (B2U) (AG) (B1G) (B3U) (AU) (AG) (B2U)
                 (B1G) (B3U) (B2G) (B3G) (B3U) (B1G) (AG) (B2U)
                 (B3U) (AU) (B2G) (B1G) (B2G) (AG) (B3G) (B3G)
                 (B1U) (AU) (B2U) (B3U) (AU) (B2G) (B1U) (AU) (B1G)
                 (B2G) (B1U) (B3G) (B3G) (B2U) (AU) (B1G) (B2G)
                 (B1U) (B3U) (B2U) (B1G) (AG) (B3U) (B3G) (AU)
                 (AG) (AU) (B2G) (B2U) (B3G) (B3U) (B1G) (B1G)
                 (B2G) (AG) (B1U) (B1U) (B1G) (B3G) (B2G) (B2U)
                 (AU) (B1U) (AU) (B2U) (B3U) (B1G) (B3G) (B2G)
                 (AU) (B1G) (B2U) (AG) (AU) (B3U) (B2U) (B1U) (B3G)
                 (B3U) (B1G) (B3G) (B2G) (AU) (B2G) (AG) (AU) (B3G)
                 (B1U) (AG) (B2U) (AG) (B3U) (B3G) (B1U) (B2U)
                 (B1U) (B3U) (B1G) (B1G) (AU) (B2G) (AU) (B2G)
                 (B2U) (AG) (B3U) (B1G) (B3G) (B2G) (B3G) (AG)
                 (B1U) (B3U) (B2U) (B1U) (B1G) (B1G) (AU) (B3U)
                 (AG) (AG) (B2U) (B2U) (AU) (B3G) (AG) (B3U) (B2G)
                 (B1G) (AU) (B2G) (B3U) (B1U) (B3G) (B3G) (B1U)
                 (B2G) (AU) (B1U) (B2G) (B1G) (B3U) (B2U) (B1G)
                 (AU) (B1G) (B2U) (B3G) (B1G) (B2G) (AU) (B1G)
                 (B3G) (B2U) (AU) (AU) (B3U) (B2G) (B3G) (B2U)
                 (AU) (AG) (B3G) (B3U) (B2G) (AG) (B2U) (B3U) (AG)
                 (B1U) (AG) (B1U) (B1G) (B3G) (B2G) (B1U) (B3U)
                 (AU) (B1U) (B2G) (B2U) (AG) (B1G) (B3U) (B1U)
                 (B1G) (B3U) (B2U) (AG) (B2U) (B3G) (B2G) (AG)
                 (B2G) (B3G) (AU) (B1U) (B3U) (AU) (B1G) (B3G)
                 (B1U) (B2U) (B1G) (AU) (AG) (B2U) (B2G) (B3G)
                 (B1G) (AU) (AU) (B3G) (B1U) (B3U) (B2G) (B1G)
                 (B2U) (B3U) (AG) (B1U) (B1G) (AU) (B2G) (B3G)
                 (B3U) (AU) (B1G) (B2U) (AG) (B2G) (B3G) (AU) (B1U)
                 (B3U) (AG) (B2U) (B3U) (B3G) (B1U) (B2G) (B2G)
                 (B1G) (AG) (AU) (B1U) (B2U) (B3G) (B3U) (B2G)
                 (B1G) (B2U) (B3G) (AU) (AG) (B1U) (B1G) (AU) (B3U)
                 (B2G) (B2U) (B3G) (AG) (B1G) (AU) (B1U) (B3U)
                 (B2G) (B2U) (B3G) (B1G) (AU) (B1G) (AU) (B3U)
                 (B2G) (AG) (B1U) (B3U) (B2G) (B1G) (AU) (B2U)
                 (B3G)
 The electronic state of the initial guess is 1-AG.
 Leave Link  401 at Thu May 15 16:59:20 2025, MaxMem=  2147483648 cpu:        11.4
 (Enter /home/sergey/g09/l502.exe)
 Closed shell SCF:
 Using DIIS extrapolation, IDIIS=  1040.
 Integral symmetry usage will be decided dynamically.
 IVT=     5763674 IEndB=     5763674 NGot=  2147483648 MDV=  2143642395
 LenX=  2143642395 LenY=  2141736615
 Requested convergence on RMS density matrix=1.00D-08 within 128 cycles.
 Requested convergence on MAX density matrix=1.00D-06.
 Requested convergence on             energy=1.00D-06.
 No special actions if energy rises.
 Fock matrices will be formed incrementally for  20 cycles.
 Integral accuracy reduced to 1.0D-05 until final iterations.

 Cycle   1  Pass 0  IDiag  1:
 FoFJK:  IHMeth= 1 ICntrl=       0 DoSepK=T KAlg= 0 I1Cent=   0 FoldK=F
 IRaf=         1 NMat=   1 IRICut=       1 DoRegI=T DoRafI=F ISym2E= 1.
 FoFCou: FMM=F IPFlag=           0 FMFlag=      100000 FMFlg1=        2000
         NFxFlg=           0 DoJE=T BraDBF=F KetDBF=F FulRan=T
         wScrn=  0.000000 ICntrl=     500 IOpCl=  0 I1Cent=           0 NGrid=           0
         NMat0=    1 NMatS0=      1 NMatT0=    0 NMatD0=    1 NMtDS0=    0 NMtDT0=    0
 Petite list used in FoFCou.
 E= -3324.47232140664    
 DIIS: error= 2.28D-02 at cycle   1 NSaved=   1.
 NSaved= 1 IEnMin= 1 EnMin= -3324.47232140664     IErMin= 1 ErrMin= 2.28D-02
 ErrMax= 2.28D-02  0.00D+00 EMaxC= 1.00D-01 BMatC= 6.27D-01 BMatP= 6.27D-01
 IDIUse=3 WtCom= 7.72D-01 WtEn= 2.28D-01
 Coeff-Com:  0.100D+01
 Coeff-En:   0.100D+01
 Coeff:      0.100D+01
 Gap=     0.175 Goal=   None    Shift=    0.000
 GapD=    0.175 DampG=1.000 DampE=0.500 DampFc=0.5000 IDamp=-1.
 Damping current iteration by 5.00D-01
 RMSDP=2.49D-03 MaxDP=1.20D-01              OVMax= 1.87D-01

 Cycle   2  Pass 0  IDiag  1:
 RMSU=  1.11D-03    CP:  9.50D-01
 E= -3324.80151282839     Delta-E=       -0.329191421744 Rises=F Damp=T
 DIIS: error= 5.47D-03 at cycle   2 NSaved=   2.
 NSaved= 2 IEnMin= 2 EnMin= -3324.80151282839     IErMin= 2 ErrMin= 5.47D-03
 ErrMax= 5.47D-03  0.00D+00 EMaxC= 1.00D-01 BMatC= 4.87D-02 BMatP= 6.27D-01
 IDIUse=3 WtCom= 9.45D-01 WtEn= 5.47D-02
 Coeff-Com: -0.479D-01 0.105D+01
 Coeff-En:   0.000D+00 0.100D+01
 Coeff:     -0.453D-01 0.105D+01
 Gap=     0.205 Goal=   None    Shift=    0.000
 RMSDP=1.15D-03 MaxDP=7.16D-02 DE=-3.29D-01 OVMax= 1.18D-01

 Cycle   3  Pass 0  IDiag  1:
 RMSU=  7.66D-04    CP:  9.00D-01  1.59D+00
 E= -3325.13532804562     Delta-E=       -0.333815217229 Rises=F Damp=F
 DIIS: error= 6.53D-03 at cycle   3 NSaved=   3.
 NSaved= 3 IEnMin= 3 EnMin= -3325.13532804562     IErMin= 2 ErrMin= 5.47D-03
 ErrMax= 6.53D-03  0.00D+00 EMaxC= 1.00D-01 BMatC= 2.33D-02 BMatP= 4.87D-02
 IDIUse=3 WtCom= 9.35D-01 WtEn= 6.53D-02
 Coeff-Com: -0.780D-01 0.434D+00 0.644D+00
 Coeff-En:   0.000D+00 0.000D+00 0.100D+01
 Coeff:     -0.729D-01 0.406D+00 0.667D+00
 Gap=     0.167 Goal=   None    Shift=    0.000
 RMSDP=2.30D-04 MaxDP=1.53D-02 DE=-3.34D-01 OVMax= 2.84D-02

 Cycle   4  Pass 0  IDiag  1:
 RMSU=  1.86D-04    CP:  8.98D-01  1.68D+00  8.91D-01
 E= -3325.15625579946     Delta-E=       -0.020927753842 Rises=F Damp=F
 DIIS: error= 2.19D-03 at cycle   4 NSaved=   4.
 NSaved= 4 IEnMin= 4 EnMin= -3325.15625579946     IErMin= 4 ErrMin= 2.19D-03
 ErrMax= 2.19D-03  0.00D+00 EMaxC= 1.00D-01 BMatC= 3.98D-03 BMatP= 2.33D-02
 IDIUse=3 WtCom= 9.78D-01 WtEn= 2.19D-02
 Coeff-Com: -0.232D-01 0.417D-01 0.308D+00 0.673D+00
 Coeff-En:   0.000D+00 0.000D+00 0.245D-01 0.976D+00
 Coeff:     -0.227D-01 0.408D-01 0.302D+00 0.680D+00
 Gap=     0.168 Goal=   None    Shift=    0.000
 RMSDP=8.37D-05 MaxDP=5.70D-03 DE=-2.09D-02 OVMax= 9.96D-03

 Cycle   5  Pass 0  IDiag  1:
 RMSU=  6.39D-05    CP:  8.96D-01  1.70D+00  9.49D-01  9.71D-01
 E= -3325.15998420196     Delta-E=       -0.003728402498 Rises=F Damp=F
 DIIS: error= 4.36D-04 at cycle   5 NSaved=   5.
 NSaved= 5 IEnMin= 5 EnMin= -3325.15998420196     IErMin= 5 ErrMin= 4.36D-04
 ErrMax= 4.36D-04  0.00D+00 EMaxC= 1.00D-01 BMatC= 1.80D-04 BMatP= 3.98D-03
 IDIUse=3 WtCom= 9.96D-01 WtEn= 4.36D-03
 Coeff-Com: -0.700D-03-0.262D-01 0.385D-01 0.210D+00 0.778D+00
 Coeff-En:   0.000D+00 0.000D+00 0.000D+00 0.000D+00 0.100D+01
 Coeff:     -0.697D-03-0.261D-01 0.383D-01 0.209D+00 0.779D+00
 Gap=     0.169 Goal=   None    Shift=    0.000
 RMSDP=2.55D-05 MaxDP=1.27D-03 DE=-3.73D-03 OVMax= 3.53D-03

 Cycle   6  Pass 0  IDiag  1:
 RMSU=  1.97D-05    CP:  8.95D-01  1.70D+00  9.62D-01  9.99D-01  1.05D+00
 E= -3325.16031822702     Delta-E=       -0.000334025066 Rises=F Damp=F
 DIIS: error= 1.91D-04 at cycle   6 NSaved=   6.
 NSaved= 6 IEnMin= 6 EnMin= -3325.16031822702     IErMin= 6 ErrMin= 1.91D-04
 ErrMax= 1.91D-04  0.00D+00 EMaxC= 1.00D-01 BMatC= 2.50D-05 BMatP= 1.80D-04
 IDIUse=3 WtCom= 9.98D-01 WtEn= 1.91D-03
 Coeff-Com:  0.192D-02-0.123D-01-0.174D-01 0.993D-03 0.251D+00 0.776D+00
 Coeff-En:   0.000D+00 0.000D+00 0.000D+00 0.000D+00 0.000D+00 0.100D+01
 Coeff:      0.192D-02-0.123D-01-0.174D-01 0.991D-03 0.251D+00 0.776D+00
 Gap=     0.169 Goal=   None    Shift=    0.000
 RMSDP=1.05D-05 MaxDP=5.61D-04 DE=-3.34D-04 OVMax= 1.93D-03

 Cycle   7  Pass 0  IDiag  1:
 RMSU=  9.28D-06    CP:  8.95D-01  1.70D+00  9.63D-01  1.01D+00  1.09D+00
                    CP:  1.12D+00
 E= -3325.16040694671     Delta-E=       -0.000088719687 Rises=F Damp=F
 DIIS: error= 9.90D-05 at cycle   7 NSaved=   7.
 NSaved= 7 IEnMin= 7 EnMin= -3325.16040694671     IErMin= 7 ErrMin= 9.90D-05
 ErrMax= 9.90D-05  0.00D+00 EMaxC= 1.00D-01 BMatC= 4.96D-06 BMatP= 2.50D-05
 IDIUse=1 WtCom= 1.00D+00 WtEn= 0.00D+00
 Coeff-Com:  0.853D-03 0.459D-04-0.126D-01-0.343D-01-0.583D-01 0.253D+00
 Coeff-Com:  0.851D+00
 Coeff:      0.853D-03 0.459D-04-0.126D-01-0.343D-01-0.583D-01 0.253D+00
 Coeff:      0.851D+00
 Gap=     0.169 Goal=   None    Shift=    0.000
 RMSDP=5.89D-06 MaxDP=2.07D-04 DE=-8.87D-05 OVMax= 1.08D-03

 Initial convergence to 1.0D-05 achieved.  Increase integral accuracy.
 Cycle   8  Pass 1  IDiag  1:
 E= -3325.15939718480     Delta-E=        0.001009761909 Rises=F Damp=F
 DIIS: error= 2.30D-03 at cycle   1 NSaved=   1.
 NSaved= 1 IEnMin= 1 EnMin= -3325.15939718480     IErMin= 1 ErrMin= 2.30D-03
 ErrMax= 2.30D-03  0.00D+00 EMaxC= 1.00D-01 BMatC= 4.55D-04 BMatP= 4.55D-04
 IDIUse=3 WtCom= 9.77D-01 WtEn= 2.30D-02
 Coeff-Com:  0.100D+01
 Coeff-En:   0.100D+01
 Coeff:      0.100D+01
 Gap=     0.169 Goal=   None    Shift=    0.000
 RMSDP=5.89D-06 MaxDP=2.07D-04 DE= 1.01D-03 OVMax= 2.80D-03

 Cycle   9  Pass 1  IDiag  1:
 RMSU=  5.85D-04    CP:  9.92D-01
 E= -3325.15983844394     Delta-E=       -0.000441259144 Rises=F Damp=F
 DIIS: error= 9.24D-05 at cycle   2 NSaved=   2.
 NSaved= 2 IEnMin= 2 EnMin= -3325.15983844394     IErMin= 2 ErrMin= 9.24D-05
 ErrMax= 9.24D-05  0.00D+00 EMaxC= 1.00D-01 BMatC= 1.45D-06 BMatP= 4.55D-04
 IDIUse=1 WtCom= 1.00D+00 WtEn= 0.00D+00
 Coeff-Com: -0.371D-01 0.104D+01
 Coeff:     -0.371D-01 0.104D+01
 Gap=     0.169 Goal=   None    Shift=    0.000
 RMSDP=2.62D-05 MaxDP=7.38D-04 DE=-4.41D-04 OVMax= 3.38D-04

 Cycle  10  Pass 1  IDiag  1:
 RMSU=  7.73D-06    CP:  9.92D-01  1.04D+00
 E= -3325.15984002238     Delta-E=       -0.000001578432 Rises=F Damp=F
 DIIS: error= 3.60D-05 at cycle   3 NSaved=   3.
 NSaved= 3 IEnMin= 3 EnMin= -3325.15984002238     IErMin= 3 ErrMin= 3.60D-05
 ErrMax= 3.60D-05  0.00D+00 EMaxC= 1.00D-01 BMatC= 8.40D-07 BMatP= 1.45D-06
 IDIUse=1 WtCom= 1.00D+00 WtEn= 0.00D+00
 Coeff-Com: -0.199D-01 0.513D+00 0.506D+00
 Coeff:     -0.199D-01 0.513D+00 0.506D+00
 Gap=     0.169 Goal=   None    Shift=    0.000
 RMSDP=1.12D-06 MaxDP=6.58D-05 DE=-1.58D-06 OVMax= 1.74D-04

 Cycle  11  Pass 1  IDiag  1:
 RMSU=  1.04D-06    CP:  9.92D-01  1.04D+00  1.03D+00
 E= -3325.15984094153     Delta-E=       -0.000000919157 Rises=F Damp=F
 DIIS: error= 1.31D-05 at cycle   4 NSaved=   4.
 NSaved= 4 IEnMin= 4 EnMin= -3325.15984094153     IErMin= 4 ErrMin= 1.31D-05
 ErrMax= 1.31D-05  0.00D+00 EMaxC= 1.00D-01 BMatC= 5.28D-08 BMatP= 8.40D-07
 IDIUse=1 WtCom= 1.00D+00 WtEn= 0.00D+00
 Coeff-Com:  0.293D-02-0.891D-01 0.108D+00 0.978D+00
 Coeff:      0.293D-02-0.891D-01 0.108D+00 0.978D+00
 Gap=     0.169 Goal=   None    Shift=    0.000
 RMSDP=8.16D-07 MaxDP=3.82D-05 DE=-9.19D-07 OVMax= 1.29D-04

 Cycle  12  Pass 1  IDiag  1:
 RMSU=  4.48D-07    CP:  9.92D-01  1.04D+00  1.11D+00  1.06D+00
 E= -3325.15984111919     Delta-E=       -0.000000177653 Rises=F Damp=F
 DIIS: error= 6.84D-06 at cycle   5 NSaved=   5.
 NSaved= 5 IEnMin= 5 EnMin= -3325.15984111919     IErMin= 5 ErrMin= 6.84D-06
 ErrMax= 6.84D-06  0.00D+00 EMaxC= 1.00D-01 BMatC= 1.11D-08 BMatP= 5.28D-08
 IDIUse=1 WtCom= 1.00D+00 WtEn= 0.00D+00
 Coeff-Com:  0.363D-02-0.977D-01-0.287D-01 0.264D+00 0.859D+00
 Coeff:      0.363D-02-0.977D-01-0.287D-01 0.264D+00 0.859D+00
 Gap=     0.169 Goal=   None    Shift=    0.000
 RMSDP=2.51D-07 MaxDP=1.60D-05 DE=-1.78D-07 OVMax= 7.34D-05

 Cycle  13  Pass 1  IDiag  1:
 RMSU=  1.55D-07    CP:  9.92D-01  1.04D+00  1.12D+00  1.13D+00  1.32D+00
 E= -3325.15984117021     Delta-E=       -0.000000051023 Rises=F Damp=F
 DIIS: error= 3.51D-06 at cycle   6 NSaved=   6.
 NSaved= 6 IEnMin= 6 EnMin= -3325.15984117021     IErMin= 6 ErrMin= 3.51D-06
 ErrMax= 3.51D-06  0.00D+00 EMaxC= 1.00D-01 BMatC= 3.38D-09 BMatP= 1.11D-08
 IDIUse=1 WtCom= 1.00D+00 WtEn= 0.00D+00
 Coeff-Com: -0.364D-03 0.142D-01-0.467D-01-0.364D+00 0.230D+00 0.117D+01
 Coeff:     -0.364D-03 0.142D-01-0.467D-01-0.364D+00 0.230D+00 0.117D+01
 Gap=     0.169 Goal=   None    Shift=    0.000
 RMSDP=2.09D-07 MaxDP=1.64D-05 DE=-5.10D-08 OVMax= 6.65D-05

 Cycle  14  Pass 1  IDiag  1:
 RMSU=  1.10D-07    CP:  9.92D-01  1.04D+00  1.12D+00  1.15D+00  1.67D+00
                    CP:  1.51D+00
 E= -3325.15984119121     Delta-E=       -0.000000021002 Rises=F Damp=F
 DIIS: error= 1.22D-06 at cycle   7 NSaved=   7.
 NSaved= 7 IEnMin= 7 EnMin= -3325.15984119121     IErMin= 7 ErrMin= 1.22D-06
 ErrMax= 1.22D-06  0.00D+00 EMaxC= 1.00D-01 BMatC= 4.77D-10 BMatP= 3.38D-09
 IDIUse=1 WtCom= 1.00D+00 WtEn= 0.00D+00
 Coeff-Com: -0.531D-03 0.162D-01-0.182D-01-0.185D+00 0.276D-02 0.506D+00
 Coeff-Com:  0.679D+00
 Coeff:     -0.531D-03 0.162D-01-0.182D-01-0.185D+00 0.276D-02 0.506D+00
 Coeff:      0.679D+00
 Gap=     0.169 Goal=   None    Shift=    0.000
 RMSDP=4.76D-08 MaxDP=2.89D-06 DE=-2.10D-08 OVMax= 1.43D-05

 Cycle  15  Pass 1  IDiag  1:
 RMSU=  3.19D-08    CP:  9.92D-01  1.04D+00  1.12D+00  1.15D+00  1.71D+00
                    CP:  1.67D+00  1.10D+00
 E= -3325.15984119192     Delta-E=       -0.000000000709 Rises=F Damp=F
 DIIS: error= 3.82D-07 at cycle   8 NSaved=   8.
 NSaved= 8 IEnMin= 8 EnMin= -3325.15984119192     IErMin= 8 ErrMin= 3.82D-07
 ErrMax= 3.82D-07  0.00D+00 EMaxC= 1.00D-01 BMatC= 4.12D-11 BMatP= 4.77D-10
 IDIUse=1 WtCom= 1.00D+00 WtEn= 0.00D+00
 Coeff-Com: -0.607D-04 0.146D-02 0.132D-02 0.104D-01-0.316D-01-0.423D-01
 Coeff-Com:  0.163D+00 0.898D+00
 Coeff:     -0.607D-04 0.146D-02 0.132D-02 0.104D-01-0.316D-01-0.423D-01
 Coeff:      0.163D+00 0.898D+00
 Gap=     0.169 Goal=   None    Shift=    0.000
 RMSDP=1.78D-08 MaxDP=8.17D-07 DE=-7.09D-10 OVMax= 3.89D-06

 Cycle  16  Pass 1  IDiag  1:
 RMSU=  9.83D-09    CP:  9.92D-01  1.04D+00  1.12D+00  1.15D+00  1.70D+00
                    CP:  1.71D+00  1.19D+00  1.09D+00
 E= -3325.15984119255     Delta-E=       -0.000000000626 Rises=F Damp=F
 DIIS: error= 1.01D-07 at cycle   9 NSaved=   9.
 NSaved= 9 IEnMin= 9 EnMin= -3325.15984119255     IErMin= 9 ErrMin= 1.01D-07
 ErrMax= 1.01D-07  0.00D+00 EMaxC= 1.00D-01 BMatC= 8.89D-12 BMatP= 4.12D-11
 IDIUse=1 WtCom= 1.00D+00 WtEn= 0.00D+00
 Coeff-Com:  0.960D-04-0.305D-02 0.408D-02 0.458D-01-0.141D-01-0.126D+00
 Coeff-Com: -0.734D-01 0.285D+00 0.882D+00
 Coeff:      0.960D-04-0.305D-02 0.408D-02 0.458D-01-0.141D-01-0.126D+00
 Coeff:     -0.734D-01 0.285D+00 0.882D+00
 Gap=     0.169 Goal=   None    Shift=    0.000
 RMSDP=8.14D-09 MaxDP=3.17D-07 DE=-6.26D-10 OVMax= 1.75D-06

 SCF Done:  E(RLC-B+HF-LYP) =  -3325.15984119     A.U. after   16 cycles
            NFock= 16  Conv=0.81D-08     -V/T= 2.0095
 KE= 3.293995766629D+03 PE=-3.501017445365D+04 EE= 1.474868772039D+04
 Leave Link  502 at Thu May 15 17:02:38 2025, MaxMem=  2147483648 cpu:      1187.9
 (Enter /home/sergey/g09/l601.exe)
 Copying SCF densities to generalized density rwf, IOpCl= 0 IROHF=0.
 Hyperfine terms turned off by default for NAtoms > 100.

 **********************************************************************

            Population analysis using the SCF density.

 **********************************************************************

 Orbital symmetries:
       Occupied  (B2G) (B3U) (B1U) (AG) (B2G) (AU) (B1U) (B3U)
                 (B3G) (AG) (B2U) (B1G) (B1U) (AG) (B3G) (B2U)
                 (AU) (B3G) (B1G) (B2U) (B2G) (B1U) (B3U) (AG)
                 (AU) (B2G) (B1G) (B3U) (B1U) (B3G) (AG) (B2U)
                 (B2G) (B1U) (B3U) (AU) (AG) (B3G) (B1G) (B2U)
                 (AU) (B3G) (B1G) (B2U) (B2G) (B1U) (B3U) (AG)
                 (B2G) (B1U) (B3U) (AG) (AU) (B3G) (B1G) (B2U)
                 (AU) (B2G) (B1G) (B3U) (B3G) (B1U) (B2U) (AG)
                 (B3G) (B1U) (B2U) (AG) (AU) (B2G) (B1G) (B3U)
                 (B3G) (B1U) (B2U) (AG) (B2G) (AU) (B1G) (B3U)
                 (AG) (B1U) (B3U) (B2G) (B2U) (B3G) (AG) (B1U)
                 (B1G) (AU) (B3U) (B2G) (B2U) (B3G) (AG) (B1U)
                 (B3U) (AG) (B2G) (B1U) (B2U) (AG) (B3G) (B1U)
                 (AG) (B3U) (B1G) (B1U) (B2G) (AU) (B2U) (B3G)
                 (B3U) (B1G) (B2G) (AU) (B2U) (B3G) (AG) (B1U)
                 (B1G) (AU) (B2U) (B3G) (B3U) (B2G) (AG) (B1U)
                 (B3U) (B2G) (AG) (B1U) (B1G) (B2U) (AU) (B3G)
                 (AG) (B1U) (B2U) (B1G) (B3G) (AU) (B3U) (B2G)
                 (B1G) (AU) (AG) (B1U) (B3U) (B2G) (B2U) (B3G)
                 (B2U) (B3G) (AG) (B1U) (B3U) (B2G) (AG) (B1U)
                 (B3U) (B2G) (B1G) (AU) (B1G) (AU) (AG) (B2U) (B3G)
                 (B3U) (B1U) (B3U) (B2G) (B2G) (B2U) (AG) (B1U)
                 (B2U) (B3G) (B1G) (AU) (AG) (B1U) (B3U) (B2G)
                 (B3G) (B2U) (B3G) (B1G) (AG) (AU) (AG) (B1U) (B3U)
                 (B2G) (B1G) (AU) (B1U) (B2U) (B3G) (AG) (B1U)
                 (B3U) (B2G) (B1G) (AU) (B3U) (AG) (B2U) (B2G)
                 (B1G) (B2U) (B1U) (AU) (B3G) (B3G) (AG) (B3U)
                 (B2G) (B1G) (AU) (AG) (B1U) (B1U) (B3U) (B2G)
                 (B2U) (AG) (B3G) (B1U) (B3U) (B2U) (B2G) (B3G)
                 (AG) (B1U) (B2U) (B3G) (AG) (B1U) (B3U) (B2G)
                 (B1G) (B2U) (B3G) (B1G) (AU) (AU) (AG) (B3U) (B2U)
                 (B1G) (B1U) (B3U) (B2G) (B3G) (AG) (AU) (B2U)
                 (B2G) (AG) (B1U) (B3G) (B1U) (B1G) (AU)
       Virtual   (B3U) (B2U) (B2G) (B3G) (B1G) (AG) (AU) (B3U)
                 (B1U) (AG) (B2U) (B2G) (B1U) (B3G) (B1G) (B2U)
                 (B3U) (AU) (B3G) (B2G) (AG) (B3U) (AG) (B2U) (AG)
                 (B1U) (B1G) (B1U) (B1G) (B2G) (AU) (B3G) (B2U)
                 (B3U) (B1U) (AG) (AU) (AG) (B1G) (B3G) (B2G) (B3U)
                 (B2U) (B1U) (B3U) (B1G) (AU) (AG) (B2G) (B2U)
                 (B3U) (B1U) (B3G) (B2G) (B3G) (B2U) (AG) (AU)
                 (B3U) (B2U) (B1G) (AG) (B1U) (B1U) (AG) (B2G)
                 (B3G) (B1G) (AU) (B1G) (B2U) (B1G) (B3U) (AU)
                 (B2G) (B3G) (AU) (B3G) (B2G) (AU) (B1G) (B3U)
                 (B2U) (B1U) (AG) (B2U) (B1U) (B3U) (AG) (B2U)
                 (B3U) (B1U) (B1G) (B2G) (B1G) (B3U) (B3G) (B2G)
                 (AU) (B2U) (B3G) (B1G) (AU) (AG) (B3G) (B2G) (B3U)
                 (B3U) (AU) (B1G) (B1U) (B2G) (AG) (B2U) (AG) (B2U)
                 (B1G) (B2U) (B3U) (AG) (B3G) (AG) (B1U) (AU) (B2G)
                 (B3U) (B3G) (AG) (B1U) (B2U) (B2G) (B1U) (B3U)
                 (B3U) (AG) (B1U) (B1G) (AG) (B3G) (B1U) (AU) (B2U)
                 (B2G) (B3G) (B2U) (B1G) (B2G) (B1U) (B3U) (AU)
                 (AG) (B1G) (AU) (B3G) (AG) (B3G) (B3U) (B2G) (AG)
                 (B1U) (B2U) (B2G) (B3U) (B2U) (B1U) (AG) (B2U)
                 (AU) (B2G) (B3G) (B1U) (AG) (AU) (B1G) (AG) (B3G)
                 (B1U) (B3U) (B3U) (B1G) (B1G) (B2U) (AG) (AU)
                 (B2U) (B3U) (B1G) (B2U) (AG) (B2G) (B3U) (B1G)
                 (AG) (B3G) (B2U) (B3U) (B1U) (B2G) (B1G) (AG)
                 (B2U) (AU) (B2U) (B3G) (B2G) (B3U) (AU) (B1G)
                 (B3U) (B1U) (AG) (B3G) (B2G) (B1U) (B3G) (B1G)
                 (AU) (B2G) (B1G) (AU) (B3U) (B1U) (B3G) (B2U)
                 (B3U) (B2G) (AU) (B2U) (AG) (AG) (B2G) (B1G) (B1U)
                 (B3G) (B2U) (AU) (B3U) (B1G) (AG) (AU) (B3U) (B3G)
                 (B2U) (B2G) (B1G) (B1U) (AG) (B3U) (B1G) (B2U)
                 (B1U) (B2G) (AG) (B1U) (B3G) (B2U) (B1U) (B3U)
                 (B2U) (B3U) (B2G) (B3G) (B1G) (B3G) (AG) (AU)
                 (B1G) (B1U) (B2G) (B1U) (AU) (B3U) (B3G) (B1G)
                 (B2U) (AG) (B2G) (B3G) (AU) (B1U) (AU) (B3U) (AG)
                 (B2G) (AU) (B2G) (B3G) (AU) (B1G) (B2G) (B1G)
                 (B2U) (B1U) (B3U) (B2U) (AG) (B1U) (B3G) (B1G)
                 (AU) (B2G) (B1U) (B2U) (B1G) (B3G) (B2G) (AU)
                 (AG) (B3U) (B1U) (B1G) (B2U) (B3G) (B2G) (B3U)
                 (B1U) (AU) (AG) (B2U) (B1U) (B3G) (AG) (AU) (B3U)
                 (B1G) (B3G) (B2U) (B2G) (B3U) (AG) (B2U) (B1G)
                 (B3U) (B3G) (AU) (B2U) (B1U) (B2G) (B1G) (AG)
                 (AU) (B3U) (B3G) (B2U) (B1G) (B1U) (B3U) (AG)
                 (AU) (B3G) (B2G) (B3G) (AG) (B2G) (B1G) (AU) (B2G)
                 (B1U) (B2U) (B3U) (B1G) (AU) (B3G) (AG) (B3U)
                 (B2G) (B1U) (AG) (AU) (B2G) (B2U) (B3G) (B1G)
                 (AU) (B3U) (B1U) (B1U) (B2U) (AU) (B2G) (B1U)
                 (B1G) (B3G) (B1G) (B3U) (B1U) (B3G) (B1U) (B2G)
                 (AG) (B2G) (AG) (B2U) (B3G) (B1G) (B3U) (B2U)
                 (B3G) (AU) (AU) (B1G) (B1U) (B3G) (B3U) (B2G)
                 (B1G) (B2U) (B2G) (AU) (AU) (B1U) (B2U) (AG) (AG)
                 (B3U) (B2U) (AG) (AU) (B2G) (B3U) (B3G) (B1U)
                 (B3U) (B3G) (B1G) (B2U) (B2G) (AU) (AU) (B2G)
                 (B3G) (AG) (B1G) (B1U) (B3G) (AG) (B3U) (B1U)
                 (B1G) (B2U) (B2G) (B3G) (AU) (B2G) (B3U) (B2U)
                 (B1U) (B1U) (AU) (B1G) (AG) (B2G) (B3G) (AU) (B2G)
                 (B3G) (AU) (B1G) (AG) (B3U) (AG) (B2U) (B1U) (AG)
                 (B3U) (AG) (B3U) (B1U) (B2U) (B1U) (B2G) (B2U)
                 (B2U) (B3G) (B2G) (AU) (B3U) (AG) (B3G) (AG) (B1U)
                 (B1U) (B2G) (B1G) (B2U) (B2U) (B3G) (B3U) (B1U)
                 (AG) (B1G) (B3U) (AG) (B1G) (B2U) (AG) (B3G) (AU)
                 (B3U) (B2G) (B1U) (B1G) (AU) (AG) (B3U) (B3G)
                 (AG) (B1U) (B2G) (B1U) (B2U) (B2G) (B3U) (B2G)
                 (B3G) (B3G) (B1U) (AG) (AU) (B1U) (B2U) (B1G)
                 (B2G) (B3G) (AU) (B1U) (B3U) (B1G) (AU) (B2G)
                 (AG) (B2G) (B1G) (B2U) (B1U) (B3U) (B3U) (AG)
                 (B2U) (B3G) (AU) (B2G) (B1U) (B3G) (B1G) (AU)
                 (AG) (B1G) (B1U) (AG) (B3U) (B1G) (B2U) (B3G)
                 (B2U) (B3U) (B2G) (AU) (B1U) (B3G) (AG) (AU) (B2U)
                 (B1G) (B2G) (B3U) (AU) (B3G) (B2G) (B1U) (B2U)
                 (AU) (B3G) (B1G) (B3U) (B1U) (AG) (B2G) (AU) (B2G)
                 (B3G) (B3U) (B1U) (B2U) (B1G) (AU) (B3G) (B2G)
                 (B1G) (B2U) (B3U) (B1G) (B2U) (AG) (AG) (B3U)
                 (AG) (B3G) (B1U) (B1U) (B2G) (B2U) (B1U) (AG)
                 (AG) (B3U) (B1G) (B3G) (B1U) (B2U) (B3U) (AU)
                 (AG) (B1G) (B2U) (AG) (B3U) (AU) (AG) (B3G) (B3U)
                 (B2G) (B2U) (B2U) (B1G) (B2U) (AG) (B2G) (B1U)
                 (AG) (B3U) (B1G) (B1G) (B1U) (B2U) (B3G) (B1G)
                 (B3U) (AU) (AU) (B1U) (B2G) (B1G) (B3G) (B1U)
                 (B3G) (B2G) (B2G) (AU) (B3G) (B3U) (B1U) (AU)
                 (B2G) (AG) (B2U) (B3G) (AU) (B1U) (B3G) (B2G)
                 (AG) (AU) (B3U) (B3G) (B1U) (AG) (B2G) (AU) (B3U)
                 (B1U) (B2G) (AG) (B2U) (B1U) (B1G) (B3U) (B2U)
                 (B1U) (B1G) (B2G) (B3G) (AG) (B3U) (B1G) (B2G)
                 (AG) (AU) (B1U) (B3U) (AU) (B3G) (B2U) (AG) (B3U)
                 (AG) (B2G) (B2U) (B1U) (B1G) (AU) (B2G) (B1U)
                 (B3G) (B2U) (B1G) (AG) (B2U) (B3U) (AG) (B1U)
                 (B2G) (AG) (B1G) (B3G) (B3U) (B3G) (AU) (B1U)
                 (B2U) (B1U) (B2G) (AU) (B2U) (B3G) (B3U) (B2U)
                 (B1U) (AU) (AG) (B2G) (B3G) (AG) (AG) (B1G) (B2G)
                 (B3G) (B1U) (B3U) (B1U) (B3G) (B3U) (AU) (B1U)
                 (B1G) (B2G) (B2U) (B2G) (B1G) (B2U) (AU) (B3U)
                 (B3G) (AG) (AG) (B1G) (B3U) (B1G) (B2U) (B3U)
                 (B2U) (AG) (B2G) (AU) (B3U) (B3G) (AU) (B2G) (B1G)
                 (B3G) (B2U) (B1U) (AG) (AU) (B3U) (B1G) (B2G)
                 (B1U) (AU) (B2G) (B3G) (B2U) (B1U) (B3G) (B1G)
                 (AU) (B3U) (B2G) (B1U) (B2U) (B1G) (AG) (B3U)
                 (B1G) (AU) (B3G) (B2G) (B3G) (B1G) (B2U) (AU)
                 (B2G) (B1U) (AG) (B3U) (AU) (B2U) (B1G) (B1U)
                 (B2G) (B3G) (AU) (AG) (B2U) (AU) (B1U) (B1G) (B3G)
                 (B3U) (B2G) (AU) (B3G) (B1G) (B2U) (AG) (B2U)
                 (B1U) (B3U) (B3U) (B3G) (B2G) (AU) (B3G) (AG)
                 (B1G) (B2G) (B1U) (AU) (AG) (AG) (B2U) (B1U) (B3G)
                 (B3U) (B3U) (B2G) (B2U) (B1U) (B1G) (B1G) (AU)
                 (AG) (AU) (B2G) (AG) (B1U) (B2U) (B3G) (B1G) (B3U)
                 (B2G) (B3G) (B1U) (B3U) (B1G) (B2U) (AU) (B1G)
                 (B3U) (AG) (B2U) (AU) (B3G) (B2G) (B2U) (AG) (B3U)
                 (B2G) (AG) (B1G) (AU) (B3U) (B1U) (B3G) (B2G)
                 (AU) (B2U) (B3G) (B1U) (B3G) (B1U) (B2G) (B1G)
                 (B2U) (AU) (B1G) (B3U) (B1G) (B1G) (AU) (B2G)
                 (B3U) (B1G) (B3G) (AU) (B2G) (AG) (B2U) (B2U)
                 (B1U) (B3G) (AU) (AU) (B3U) (AG) (B2G) (B3G) (B3U)
                 (B1G) (AU) (AG) (B2U) (B1U) (AG) (B2G) (B3U) (B1U)
                 (B3G) (B1U) (B2G) (B2U) (AG) (B3U) (B1G) (B3U)
                 (AG) (B2U) (B1G) (B1U) (B3G) (B2G) (AG) (B2U)
                 (B1U) (B3U) (B3G) (B2G) (AU) (AU) (B1G) (AU) (B1U)
                 (B3G) (AG) (B2U) (B2U) (B3G) (B1G) (B2G) (B3U)
                 (B2G) (B1U) (B1G) (AG) (B1U) (AU) (B3G) (AU) (B2U)
                 (B1G) (B3U) (B1G) (B3G) (AU) (B2G) (B3U) (AU)
                 (AG) (B1G) (B2U) (B2G) (B1U) (B3G) (B3U) (AU)
                 (B2G) (AG) (B2U) (B3U) (B3G) (B1U) (B2G) (B1G)
                 (AG) (B1U) (AU) (B2U) (B3G) (B3U) (B2G) (B1G)
                 (B2U) (B3G) (AU) (AG) (B1U) (B1G) (AU) (B3U) (B2G)
                 (B2U) (B3G) (AG) (B1U) (B1G) (B3U) (AU) (B2G)
                 (B2U) (B1G) (B3G) (AU) (AG) (B3U) (B1G) (AU) (B1U)
                 (B2G) (B3U) (B2G) (B2U) (B3G) (B1G) (AU)
 The electronic state is 1-AG.
 Alpha  occ. eigenvalues --  -14.27328 -14.27326 -14.27324 -14.27321 -14.22438
 Alpha  occ. eigenvalues --  -14.22436 -14.22435 -14.22435 -14.22435 -14.22433
 Alpha  occ. eigenvalues --  -14.22433 -14.22433 -14.21185 -14.21182 -14.21181
 Alpha  occ. eigenvalues --  -14.21179 -10.21193 -10.21192 -10.21191 -10.21190
 Alpha  occ. eigenvalues --  -10.21179 -10.21179 -10.21178 -10.21177 -10.19413
 Alpha  occ. eigenvalues --  -10.19413 -10.19411 -10.19410 -10.19401 -10.19401
 Alpha  occ. eigenvalues --  -10.19400 -10.19400 -10.13816 -10.13815 -10.13809
 Alpha  occ. eigenvalues --  -10.13807 -10.13807 -10.13807 -10.13804 -10.13804
 Alpha  occ. eigenvalues --  -10.13758 -10.13757 -10.13754 -10.13754 -10.13749
 Alpha  occ. eigenvalues --  -10.13749 -10.13743 -10.13743 -10.13593 -10.13593
 Alpha  occ. eigenvalues --  -10.13583 -10.13583 -10.13578 -10.13578 -10.13571
 Alpha  occ. eigenvalues --  -10.13571 -10.12762 -10.12762 -10.12759 -10.12759
 Alpha  occ. eigenvalues --  -10.12749 -10.12749 -10.12742 -10.12742 -10.12611
 Alpha  occ. eigenvalues --  -10.12611 -10.12602 -10.12602 -10.12594 -10.12594
 Alpha  occ. eigenvalues --  -10.12588 -10.12588 -10.12225 -10.12225 -10.12218
 Alpha  occ. eigenvalues --  -10.12217 -10.12209 -10.12209 -10.12204 -10.12204
 Alpha  occ. eigenvalues --   -1.15841  -1.15738  -1.15276  -1.15179  -1.12239
 Alpha  occ. eigenvalues --   -1.12133  -1.10324  -1.10226  -1.07994  -1.07907
 Alpha  occ. eigenvalues --   -1.04102  -1.04030  -1.03592  -1.03511  -1.00635
 Alpha  occ. eigenvalues --   -1.00527  -1.00353  -1.00316  -1.00192  -1.00191
 Alpha  occ. eigenvalues --   -0.98649  -0.98572  -0.98491  -0.98424  -0.91180
 Alpha  occ. eigenvalues --   -0.91154  -0.91152  -0.91053  -0.91029  -0.91015
 Alpha  occ. eigenvalues --   -0.89773  -0.89629  -0.88631  -0.88608  -0.88482
 Alpha  occ. eigenvalues --   -0.88456  -0.88451  -0.88319  -0.88295  -0.88164
 Alpha  occ. eigenvalues --   -0.85223  -0.85113  -0.83052  -0.82970  -0.82146
 Alpha  occ. eigenvalues --   -0.82059  -0.79147  -0.79047  -0.78409  -0.78315
 Alpha  occ. eigenvalues --   -0.76595  -0.76531  -0.75285  -0.75267  -0.75185
 Alpha  occ. eigenvalues --   -0.75161  -0.74679  -0.74578  -0.73184  -0.73112
 Alpha  occ. eigenvalues --   -0.73088  -0.73050  -0.71940  -0.71835  -0.70835
 Alpha  occ. eigenvalues --   -0.70744  -0.70198  -0.70089  -0.69288  -0.69195
 Alpha  occ. eigenvalues --   -0.69061  -0.69016  -0.66257  -0.66155  -0.66076
 Alpha  occ. eigenvalues --   -0.65973  -0.65738  -0.65689  -0.64242  -0.64133
 Alpha  occ. eigenvalues --   -0.62927  -0.62850  -0.62659  -0.62631  -0.62350
 Alpha  occ. eigenvalues --   -0.62265  -0.61750  -0.60957  -0.60872  -0.60741
 Alpha  occ. eigenvalues --   -0.60392  -0.59718  -0.59630  -0.59414  -0.58590
 Alpha  occ. eigenvalues --   -0.58192  -0.58123  -0.58111  -0.58047  -0.57858
 Alpha  occ. eigenvalues --   -0.57763  -0.57644  -0.57600  -0.57247  -0.57204
 Alpha  occ. eigenvalues --   -0.57179  -0.56387  -0.56275  -0.56181  -0.56086
 Alpha  occ. eigenvalues --   -0.56069  -0.55661  -0.55578  -0.55476  -0.55367
 Alpha  occ. eigenvalues --   -0.54785  -0.54696  -0.54597  -0.54163  -0.54089
 Alpha  occ. eigenvalues --   -0.53721  -0.53643  -0.53269  -0.53202  -0.52166
 Alpha  occ. eigenvalues --   -0.50991  -0.50671  -0.50375  -0.49856  -0.49013
 Alpha  occ. eigenvalues --   -0.48773  -0.48718  -0.48707  -0.48697  -0.48645
 Alpha  occ. eigenvalues --   -0.48239  -0.47976  -0.47747  -0.47671  -0.47215
 Alpha  occ. eigenvalues --   -0.47150  -0.46975  -0.46896  -0.46476  -0.46258
 Alpha  occ. eigenvalues --   -0.46190  -0.45492  -0.45441  -0.45416  -0.45361
 Alpha  occ. eigenvalues --   -0.44594  -0.44107  -0.43527  -0.42842  -0.42231
 Alpha  occ. eigenvalues --   -0.42123  -0.41978  -0.41860  -0.40138  -0.39980
 Alpha  occ. eigenvalues --   -0.39500  -0.39393  -0.39123  -0.38897  -0.38785
 Alpha  occ. eigenvalues --   -0.37807  -0.37691  -0.37531  -0.37480  -0.37076
 Alpha  occ. eigenvalues --   -0.36834  -0.36633  -0.36254  -0.36073  -0.35700
 Alpha  occ. eigenvalues --   -0.35361  -0.35153  -0.35079  -0.34824  -0.34573
 Alpha  occ. eigenvalues --   -0.33800  -0.33784  -0.33510  -0.32865  -0.24306
 Alpha  occ. eigenvalues --   -0.23078
 Alpha virt. eigenvalues --   -0.06146  -0.05819  -0.05094  -0.04811   0.02950
 Alpha virt. eigenvalues --    0.03713   0.04173   0.04752   0.05172   0.05530
 Alpha virt. eigenvalues --    0.05641   0.06388   0.07194   0.07271   0.10368
 Alpha virt. eigenvalues --    0.10583   0.10977   0.11842   0.12032   0.12447
 Alpha virt. eigenvalues --    0.13480   0.13695   0.13921   0.14257   0.14735
 Alpha virt. eigenvalues --    0.15031   0.15131   0.15668   0.15675   0.15877
 Alpha virt. eigenvalues --    0.16407   0.16474   0.16764   0.16885   0.16899
 Alpha virt. eigenvalues --    0.17914   0.18159   0.18475   0.18886   0.19211
 Alpha virt. eigenvalues --    0.19409   0.19557   0.19941   0.20269   0.20451
 Alpha virt. eigenvalues --    0.20986   0.21245   0.21582   0.21642   0.21660
 Alpha virt. eigenvalues --    0.21717   0.21859   0.22494   0.22692   0.23102
 Alpha virt. eigenvalues --    0.23270   0.23414   0.23436   0.23926   0.23937
 Alpha virt. eigenvalues --    0.24345   0.24938   0.25484   0.25700   0.25916
 Alpha virt. eigenvalues --    0.26195   0.26255   0.26475   0.26798   0.27706
 Alpha virt. eigenvalues --    0.28160   0.28794   0.28898   0.28955   0.29209
 Alpha virt. eigenvalues --    0.29311   0.30106   0.30221   0.30393   0.30583
 Alpha virt. eigenvalues --    0.30629   0.30904   0.31020   0.31094   0.31530
 Alpha virt. eigenvalues --    0.31806   0.32234   0.32309   0.33364   0.33537
 Alpha virt. eigenvalues --    0.33573   0.33612   0.33695   0.34494   0.34733
 Alpha virt. eigenvalues --    0.34822   0.34848   0.34992   0.35009   0.35544
 Alpha virt. eigenvalues --    0.35897   0.36155   0.36237   0.36509   0.36849
 Alpha virt. eigenvalues --    0.36994   0.37007   0.37169   0.37348   0.37422
 Alpha virt. eigenvalues --    0.37486   0.37794   0.37942   0.38113   0.38254
 Alpha virt. eigenvalues --    0.38776   0.39130   0.39163   0.39270   0.39317
 Alpha virt. eigenvalues --    0.39565   0.39630   0.39716   0.39848   0.39852
 Alpha virt. eigenvalues --    0.40456   0.40895   0.41287   0.41734   0.41815
 Alpha virt. eigenvalues --    0.42710   0.42846   0.43353   0.43472   0.43979
 Alpha virt. eigenvalues --    0.44063   0.44247   0.44327   0.44476   0.44560
 Alpha virt. eigenvalues --    0.44617   0.44934   0.45295   0.45493   0.45937
 Alpha virt. eigenvalues --    0.45976   0.45988   0.46367   0.46565   0.46713
 Alpha virt. eigenvalues --    0.47005   0.47361   0.47671   0.48227   0.48359
 Alpha virt. eigenvalues --    0.48688   0.48911   0.48963   0.49190   0.49286
 Alpha virt. eigenvalues --    0.49720   0.50077   0.50157   0.50365   0.50482
 Alpha virt. eigenvalues --    0.50567   0.50776   0.51100   0.51169   0.51275
 Alpha virt. eigenvalues --    0.51670   0.51859   0.52309   0.52352   0.52864
 Alpha virt. eigenvalues --    0.52986   0.53010   0.53524   0.53675   0.53710
 Alpha virt. eigenvalues --    0.53799   0.53972   0.53998   0.54322   0.54423
 Alpha virt. eigenvalues --    0.54505   0.54852   0.55181   0.55460   0.55551
 Alpha virt. eigenvalues --    0.55898   0.55997   0.56220   0.56235   0.56331
 Alpha virt. eigenvalues --    0.56734   0.57208   0.57439   0.57512   0.57597
 Alpha virt. eigenvalues --    0.57854   0.57962   0.58324   0.58392   0.58447
 Alpha virt. eigenvalues --    0.58656   0.58790   0.59062   0.59066   0.59136
 Alpha virt. eigenvalues --    0.60117   0.60195   0.60402   0.60610   0.60622
 Alpha virt. eigenvalues --    0.60800   0.61431   0.61531   0.61557   0.62055
 Alpha virt. eigenvalues --    0.62232   0.62371   0.62390   0.62602   0.62784
 Alpha virt. eigenvalues --    0.62803   0.63050   0.63499   0.63567   0.64289
 Alpha virt. eigenvalues --    0.64377   0.65260   0.65366   0.65506   0.65865
 Alpha virt. eigenvalues --    0.65989   0.66031   0.66120   0.66506   0.66907
 Alpha virt. eigenvalues --    0.66911   0.67355   0.67574   0.68280   0.68650
 Alpha virt. eigenvalues --    0.68730   0.68841   0.68888   0.68982   0.69490
 Alpha virt. eigenvalues --    0.69879   0.70460   0.70490   0.70641   0.71297
 Alpha virt. eigenvalues --    0.71460   0.72040   0.72435   0.72568   0.72697
 Alpha virt. eigenvalues --    0.72766   0.73174   0.73258   0.73551   0.73560
 Alpha virt. eigenvalues --    0.73601   0.73763   0.73768   0.73857   0.74257
 Alpha virt. eigenvalues --    0.74293   0.74328   0.74333   0.74338   0.74389
 Alpha virt. eigenvalues --    0.74465   0.74552   0.74724   0.74987   0.75348
 Alpha virt. eigenvalues --    0.75400   0.75529   0.75556   0.76061   0.76162
 Alpha virt. eigenvalues --    0.76165   0.76299   0.76611   0.76620   0.76994
 Alpha virt. eigenvalues --    0.77099   0.77139   0.77180   0.77443   0.77799
 Alpha virt. eigenvalues --    0.77972   0.78200   0.78227   0.78495   0.78757
 Alpha virt. eigenvalues --    0.78791   0.78889   0.78901   0.79127   0.79170
 Alpha virt. eigenvalues --    0.79490   0.79608   0.80044   0.80134   0.80529
 Alpha virt. eigenvalues --    0.80674   0.80688   0.80796   0.81311   0.81416
 Alpha virt. eigenvalues --    0.81596   0.81821   0.82027   0.82033   0.82036
 Alpha virt. eigenvalues --    0.82267   0.82483   0.82597   0.82678   0.82964
 Alpha virt. eigenvalues --    0.83674   0.83736   0.84214   0.84236   0.84476
 Alpha virt. eigenvalues --    0.84832   0.85138   0.85245   0.85448   0.85742
 Alpha virt. eigenvalues --    0.85809   0.86364   0.86406   0.86444   0.87030
 Alpha virt. eigenvalues --    0.87036   0.87054   0.87344   0.87356   0.87384
 Alpha virt. eigenvalues --    0.87645   0.87777   0.87862   0.87864   0.88169
 Alpha virt. eigenvalues --    0.88171   0.88756   0.89129   0.89163   0.89578
 Alpha virt. eigenvalues --    0.89691   0.90192   0.90231   0.90452   0.90772
 Alpha virt. eigenvalues --    0.90865   0.91094   0.91360   0.91505   0.92362
 Alpha virt. eigenvalues --    0.92377   0.92574   0.92852   0.92861   0.93522
 Alpha virt. eigenvalues --    0.93556   0.93569   0.93697   0.94050   0.94870
 Alpha virt. eigenvalues --    0.94989   0.95236   0.95740   0.96410   0.97265
 Alpha virt. eigenvalues --    0.97299   0.97547   0.97576   0.97689   0.98013
 Alpha virt. eigenvalues --    0.98960   0.99162   0.99293   0.99373   0.99785
 Alpha virt. eigenvalues --    1.00287   1.01034   1.01105   1.01784   1.02083
 Alpha virt. eigenvalues --    1.03278   1.03403   1.03448   1.03500   1.03592
 Alpha virt. eigenvalues --    1.04021   1.04169   1.04277   1.04515   1.04604
 Alpha virt. eigenvalues --    1.04875   1.04914   1.05450   1.05580   1.06169
 Alpha virt. eigenvalues --    1.06282   1.06508   1.06907   1.07487   1.07780
 Alpha virt. eigenvalues --    1.08579   1.09247   1.09425   1.09458   1.09951
 Alpha virt. eigenvalues --    1.10075   1.10132   1.10226   1.11964   1.12121
 Alpha virt. eigenvalues --    1.12504   1.12556   1.12616   1.12817   1.13140
 Alpha virt. eigenvalues --    1.13163   1.13353   1.13660   1.14165   1.14910
 Alpha virt. eigenvalues --    1.15984   1.16256   1.16309   1.17100   1.17402
 Alpha virt. eigenvalues --    1.17469   1.18831   1.19461   1.19648   1.20175
 Alpha virt. eigenvalues --    1.20419   1.20693   1.21657   1.21896   1.22004
 Alpha virt. eigenvalues --    1.24285   1.24396   1.25759   1.26123   1.26447
 Alpha virt. eigenvalues --    1.26610   1.26650   1.26788   1.26835   1.28103
 Alpha virt. eigenvalues --    1.28814   1.29058   1.29423   1.31216   1.31353
[...]
 Alpha virt. eigenvalues --    2.88113   2.89282   2.89917   2.90555   2.90816
 Alpha virt. eigenvalues --    2.91174   2.91396   2.91456   2.91712   2.92040
 Alpha virt. eigenvalues --    2.92155   2.92317   2.92570   2.92666   2.93416
 Alpha virt. eigenvalues --    2.93448   2.93658   2.93791   2.93809   2.94579
 Alpha virt. eigenvalues --    2.94691   2.94810   2.94909   2.95166   2.95230
 Alpha virt. eigenvalues --    2.95741   2.96289   2.96455   2.96483   2.96526
 Alpha virt. eigenvalues --    2.96565   2.96640   2.96693   2.96778   2.97105
 Alpha virt. eigenvalues --    2.97387   2.97749   2.97749   2.98764   2.98973
 Alpha virt. eigenvalues --    2.99228   2.99513   2.99756   3.00115   3.00433
 Alpha virt. eigenvalues --    3.00683   3.01495   3.01758   3.02090   3.02590
 Alpha virt. eigenvalues --    3.02949   3.03771   3.03824   3.04031   3.05019
 Alpha virt. eigenvalues --    3.05048   3.05137   3.05473   3.05685   3.06048
 Alpha virt. eigenvalues --    3.06181   3.06194   3.06611   3.06663   3.06722
 Alpha virt. eigenvalues --    3.06991   3.07275   3.07398   3.07408   3.07516
 Alpha virt. eigenvalues --    3.07673   3.07907   3.08004   3.08690   3.08843
 Alpha virt. eigenvalues --    3.09055   3.09166   3.09195   3.09259   3.09368
 Alpha virt. eigenvalues --    3.09490   3.10127   3.10259   3.10601   3.10727
 Alpha virt. eigenvalues --    3.11372   3.11378   3.11487   3.11687   3.12378
 Alpha virt. eigenvalues --    3.12467   3.12600   3.13045   3.13075   3.13096
 Alpha virt. eigenvalues --    3.13300   3.13468   3.13701   3.14137   3.14307
 Alpha virt. eigenvalues --    3.14651   3.14751   3.14777   3.14856   3.15058
 Alpha virt. eigenvalues --    3.15721   3.15897   3.16171   3.16209   3.16217
 Alpha virt. eigenvalues --    3.16259   3.17543   3.17547   3.17926   3.18236
 Alpha virt. eigenvalues --    3.18290   3.18422   3.18423   3.18554   3.19438
 Alpha virt. eigenvalues --    3.19685   3.19714   3.20052   3.20115   3.20245
 Alpha virt. eigenvalues --    3.20326   3.20399   3.20859   3.21045   3.21055
 Alpha virt. eigenvalues --    3.21248   3.21414   3.21475   3.21621   3.21668
 Alpha virt. eigenvalues --    3.21798   3.21913   3.22242   3.22303   3.22846
 Alpha virt. eigenvalues --    3.22857   3.23811   3.23962   3.24027   3.24044
 Alpha virt. eigenvalues --    3.24249   3.24564   3.24670   3.24929   3.25191
 Alpha virt. eigenvalues --    3.25878   3.25996   3.26146   3.26347   3.26454
 Alpha virt. eigenvalues --    3.26652   3.26744   3.27374   3.27405   3.27509
 Alpha virt. eigenvalues --    3.27711   3.27813   3.28861   3.29322   3.29521
 Alpha virt. eigenvalues --    3.29544   3.29706   3.30027   3.30029   3.30784
 Alpha virt. eigenvalues --    3.31011   3.31130   3.31206   3.31408   3.32027
 Alpha virt. eigenvalues --    3.32107   3.32855   3.33692   3.34188   3.34404
 Alpha virt. eigenvalues --    3.34456   3.34804   3.34968   3.35275   3.36056
 Alpha virt. eigenvalues --    3.36904   3.37307   3.37330   3.37604   3.38269
 Alpha virt. eigenvalues --    3.38333   3.38609   3.38828   3.39177   3.39220
 Alpha virt. eigenvalues --    3.39370   3.39513   3.39579   3.40140   3.40143
 Alpha virt. eigenvalues --    3.40475   3.40705   3.41167   3.41328   3.41540
 Alpha virt. eigenvalues --    3.41965   3.42052   3.42313   3.42356   3.42531
 Alpha virt. eigenvalues --    3.42606   3.42943   3.43004   3.43690   3.44025
 Alpha virt. eigenvalues --    3.44250   3.44787   3.44881   3.45022   3.45147
 Alpha virt. eigenvalues --    3.45497   3.46357   3.46763   3.46772   3.46793
 Alpha virt. eigenvalues --    3.46853   3.46983   3.47066   3.47503   3.47567
 Alpha virt. eigenvalues --    3.47601   3.48758   3.48919   3.49270   3.49466
 Alpha virt. eigenvalues --    3.49762   3.50235   3.50317   3.50593   3.51521
 Alpha virt. eigenvalues --    3.51560   3.51805   3.52258   3.52366   3.52580
 Alpha virt. eigenvalues --    3.53029   3.53155   3.53512   3.53577   3.53723
 Alpha virt. eigenvalues --    3.54489   3.54918   3.55200   3.55652   3.55938
 Alpha virt. eigenvalues --    3.56048   3.56117   3.56154   3.56739   3.56863
 Alpha virt. eigenvalues --    3.57166   3.57538   3.57553   3.57690   3.57881
 Alpha virt. eigenvalues --    3.58140   3.58312   3.58515   3.58538   3.58587
 Alpha virt. eigenvalues --    3.58794   3.59121   3.59257   3.59601   3.59766
 Alpha virt. eigenvalues --    3.60023   3.60106   3.60578   3.60641   3.62317
 Alpha virt. eigenvalues --    3.62678   3.62921   3.63066   3.63403   3.63800
 Alpha virt. eigenvalues --    3.63965   3.64473   3.64482   3.64895   3.65091
 Alpha virt. eigenvalues --    3.65174   3.65399   3.65568   3.65714   3.65780
 Alpha virt. eigenvalues --    3.65820   3.66336   3.67160   3.67338   3.68070
 Alpha virt. eigenvalues --    3.68321   3.68386   3.68399   3.68665   3.69722
 Alpha virt. eigenvalues --    3.69748   3.70025   3.70345   3.71397   3.71645
 Alpha virt. eigenvalues --    3.71737   3.72008   3.72227   3.72954   3.73001
 Alpha virt. eigenvalues --    3.73555   3.73634   3.74200   3.74406   3.75280
 Alpha virt. eigenvalues --    3.75625   3.75923   3.76232   3.76778   3.77035
 Alpha virt. eigenvalues --    3.77047   3.77774   3.78037   3.78243   3.78339
 Alpha virt. eigenvalues --    3.79397   3.80073   3.80200   3.80922   3.81506
 Alpha virt. eigenvalues --    3.82002   3.82164   3.82201   3.82314   3.82741
 Alpha virt. eigenvalues --    3.82865   3.83055   3.83382   3.83813   3.84429
 Alpha virt. eigenvalues --    3.84986   3.85909   3.85958   3.86386   3.87056
 Alpha virt. eigenvalues --    3.87373   3.87502   3.87563   3.87651   3.88884
 Alpha virt. eigenvalues --    3.88950   3.89021   3.91367   3.91467   3.92416
 Alpha virt. eigenvalues --    3.93714   3.94305   3.95502   3.95593   3.97138
 Alpha virt. eigenvalues --    3.97343   3.99085   3.99098   3.99316   4.00093
 Alpha virt. eigenvalues --    4.00566   4.01085   4.01253   4.01357   4.02705
 Alpha virt. eigenvalues --    4.03094   4.03598   4.04709   4.04824   4.05249
 Alpha virt. eigenvalues --    4.05841   4.05897   4.06637   4.06733   4.07708
 Alpha virt. eigenvalues --    4.08134   4.08850   4.09093   4.09650   4.10147
 Alpha virt. eigenvalues --    4.10356   4.10839   4.10988   4.11302   4.11699
 Alpha virt. eigenvalues --    4.11727   4.12269   4.14536   4.14672   4.15641
 Alpha virt. eigenvalues --    4.16073   4.16170   4.16866   4.19139   4.20996
 Alpha virt. eigenvalues --    4.21468   4.21833   4.22090   4.23653   4.23763
 Alpha virt. eigenvalues --    4.23868   4.24039   4.24364   4.26399   4.26584
 Alpha virt. eigenvalues --    4.27364   4.27554   4.29065   4.29220   4.29846
 Alpha virt. eigenvalues --    4.30909   4.31001   4.32506   4.32527   4.33170
 Alpha virt. eigenvalues --    4.33614   4.33734   4.34093   4.35111   4.36562
 Alpha virt. eigenvalues --    4.36654   4.37436   4.38402   4.38858   4.38889
 Alpha virt. eigenvalues --    4.38936   4.40948   4.41670   4.42692   4.43288
 Alpha virt. eigenvalues --    4.43339   4.43645   4.44227   4.44991   4.45693
 Alpha virt. eigenvalues --    4.46660   4.48273   4.48643   4.50411   4.51475
 Alpha virt. eigenvalues --    4.52468   4.54260   4.54425   4.55287   4.55527
 Alpha virt. eigenvalues --    4.63449   4.64085   4.64184   4.64427   4.65643
 Alpha virt. eigenvalues --    4.65971   4.69272   4.69467   4.72726   4.76229
 Alpha virt. eigenvalues --    4.76639   4.78457   4.78484   4.78703   4.82149
 Alpha virt. eigenvalues --    4.82361   4.82713   4.83120   4.83202   4.85929
 Alpha virt. eigenvalues --    4.87219   4.87536   4.87741   4.89237   4.90999
 Alpha virt. eigenvalues --    4.91351   4.93531   4.95711   4.98977   4.99321
 Alpha virt. eigenvalues --    5.01070   5.01356   5.01784   5.03076   5.03817
 Alpha virt. eigenvalues --    5.04181   5.04206   5.04423   5.04655   5.04824
 Alpha virt. eigenvalues --    5.05267   5.05445   5.05999   5.06147   5.06546
 Alpha virt. eigenvalues --    5.07437   5.08122   5.10281   5.11591   5.12113
 Alpha virt. eigenvalues --    5.12410   5.14260   5.15728   5.16793   5.20402
 Alpha virt. eigenvalues --    5.20441   5.36236   5.37494   5.38669   5.38945
 Alpha virt. eigenvalues --    5.40379   5.40448   5.40785   5.40803   5.41951
 Alpha virt. eigenvalues --    5.42615   5.45976   5.46690   5.49523   5.49953
 Alpha virt. eigenvalues --    5.50733   5.51057   5.51794   5.51807   5.53073
 Alpha virt. eigenvalues --    5.53810   5.55438   5.55472   5.59173   5.60485
 Alpha virt. eigenvalues --    5.69581   5.71293   5.71326   5.73622   5.75461
 Alpha virt. eigenvalues --    5.75543   5.76847   5.77514  21.61859  21.72798
 Alpha virt. eigenvalues --   21.73352  21.75727  21.80261  21.87817  21.88141
 Alpha virt. eigenvalues --   21.89898  21.95547  22.00897  22.05362  22.06510
 Alpha virt. eigenvalues --   22.10904  22.11557  22.11834  22.15742  22.17561
 Alpha virt. eigenvalues --   22.18437  22.19328  22.20470  22.20636  22.20790
 Alpha virt. eigenvalues --   22.24327  22.24809  22.25133  22.25902  22.27930
 Alpha virt. eigenvalues --   22.28204  22.28715  22.29565  22.30867  22.34996
 Alpha virt. eigenvalues --   22.46405  22.48359  22.48893  22.49090  22.51772
 Alpha virt. eigenvalues --   22.53676  22.53731  22.54305  22.54419  22.54901
 Alpha virt. eigenvalues --   22.59333  22.61172  22.61568  22.62039  22.62945
 Alpha virt. eigenvalues --   22.64468  22.68760  22.71886  22.75329  22.75754
 Alpha virt. eigenvalues --   22.78160  22.79301  22.84997  22.87968  23.33793
 Alpha virt. eigenvalues --   23.35201  23.36722  23.37664  23.38271  23.39125
 Alpha virt. eigenvalues --   23.40121  23.41684  32.16421  32.17854  32.18654
 Alpha virt. eigenvalues --   32.18848  32.26345  32.28053  32.28215  32.28826
 Alpha virt. eigenvalues --   32.56079  32.57344  32.58952  32.60102  32.60458
 Alpha virt. eigenvalues --   32.60733  32.61054  32.63543
          Condensed to atoms (all electrons):
 Mulliken charges:
               1
     1  C   -0.086845
     2  C   -0.086845
     3  C   -0.222225
     4  C    0.073983
     5  C    0.073983
     6  C   -0.222225
     7  C    0.500256
     8  C    0.500256
     9  N   -0.687319
    10  N   -0.558421
    11  N   -0.558421
    12  H    0.118858
    13  H    0.118858
    14  H    0.135350
    15  H    0.135350
    16  C   -0.087303
    17  C   -0.087303
    18  C   -0.212821
    19  C    0.092158
    20  C    0.092158
    21  C   -0.212821
    22  C    0.331639
    23  C    0.331639
    24  N   -0.231265
    25  N   -0.558421
    26  H    0.124443
    27  H    0.124443
    28  H    0.144231
    29  H    0.144231
    30  C   -0.087303
    31  C   -0.087303
    32  C   -0.212821
    33  C    0.092158
    34  C    0.092158
    35  C   -0.212821
    36  C    0.331639
    37  C    0.331639
    38  N   -0.231265
    39  N   -0.558421
    40  H    0.124443
    41  H    0.124443
    42  H    0.144231
    43  H    0.144231
    44  C   -0.086845
    45  C   -0.086845
    46  C   -0.222225
    47  C    0.073983
    48  C    0.073983
    49  C   -0.222225
    50  C    0.500256
    51  C    0.500256
    52  N   -0.687319
    53  H    0.118858
    54  H    0.118858
    55  H    0.135350
    56  H    0.135350
    57  H    0.211979
    58  H    0.211979
    59  C   -0.086845
    60  C   -0.086845
    61  C   -0.222225
    62  C    0.073983
    63  C    0.073983
    64  C   -0.222225
    65  C    0.500256
    66  C    0.500256
    67  N   -0.687319
    68  N   -0.558421
    69  N   -0.558421
    70  H    0.118858
    71  H    0.118858
    72  H    0.135350
    73  H    0.135350
    74  C   -0.087303
    75  C   -0.087303
    76  C   -0.212821
    77  C    0.092158
    78  C    0.092158
    79  C   -0.212821
    80  C    0.331639
    81  C    0.331639
    82  N   -0.231265
    83  N   -0.558421
    84  H    0.124443
    85  H    0.124443
    86  H    0.144231
    87  H    0.144231
    88  C   -0.087303
    89  C   -0.087303
    90  C   -0.212821
    91  C    0.092158
    92  C    0.092158
    93  C   -0.212821
    94  C    0.331639
    95  C    0.331639
    96  N   -0.231265
    97  N   -0.558421
    98  H    0.124443
    99  H    0.124443
   100  H    0.144231
   101  H    0.144231
   102  C   -0.086845
   103  C   -0.086845
   104  C   -0.222225
   105  C    0.073983
   106  C    0.073983
   107  C   -0.222225
   108  C    0.500256
   109  C    0.500256
   110  N   -0.687319
   111  H    0.118858
   112  H    0.118858
   113  H    0.135350
   114  H    0.135350
   115  H    0.211979
   116  H    0.211979
 Sum of Mulliken charges =  -0.00000
 Mulliken charges with hydrogens summed into heavy atoms:
               1
     1  C    0.032013
     2  C    0.032013
     3  C   -0.086876
     4  C    0.073983
     5  C    0.073983
     6  C   -0.086876
     7  C    0.500256
     8  C    0.500256
     9  N   -0.687319
    10  N   -0.558421
    11  N   -0.558421
    16  C    0.037140
    17  C    0.037140
    18  C   -0.068590
    19  C    0.092158
    20  C    0.092158
    21  C   -0.068590
    22  C    0.331639
    23  C    0.331639
    24  N   -0.019286
    25  N   -0.558421
    30  C    0.037140
    31  C    0.037140
    32  C   -0.068590
    33  C    0.092158
    34  C    0.092158
    35  C   -0.068590
    36  C    0.331639
    37  C    0.331639
    38  N   -0.019286
    39  N   -0.558421
    44  C    0.032013
    45  C    0.032013
    46  C   -0.086876
    47  C    0.073983
    48  C    0.073983
    49  C   -0.086876
    50  C    0.500256
    51  C    0.500256
    52  N   -0.687319
    59  C    0.032013
    60  C    0.032013
    61  C   -0.086876
    62  C    0.073983
    63  C    0.073983
    64  C   -0.086876
    65  C    0.500256
    66  C    0.500256
    67  N   -0.687319
    68  N   -0.558421
    69  N   -0.558421
    74  C    0.037140
    75  C    0.037140
    76  C   -0.068590
    77  C    0.092158
    78  C    0.092158
    79  C   -0.068590
    80  C    0.331639
    81  C    0.331639
    82  N   -0.019286
    83  N   -0.558421
    88  C    0.037140
    89  C    0.037140
    90  C   -0.068590
    91  C    0.092158
    92  C    0.092158
    93  C   -0.068590
    94  C    0.331639
    95  C    0.331639
    96  N   -0.019286
    97  N   -0.558421
   102  C    0.032013
   103  C    0.032013
   104  C   -0.086876
   105  C    0.073983
   106  C    0.073983
   107  C   -0.086876
   108  C    0.500256
   109  C    0.500256
   110  N   -0.687319
 Electronic spatial extent (au):  <R**2>=          51462.4865
 Charge=              0.0000 electrons
 Dipole moment (field-independent basis, Debye):
    X=             -0.0000    Y=              0.0000    Z=              0.0000  Tot=              0.0000
 Quadrupole moment (field-independent basis, Debye-Ang):
   XX=           -377.2434   YY=           -406.8256   ZZ=           -480.5287
   XY=              0.0000   XZ=             -0.0000   YZ=             -0.0000
 Traceless Quadrupole moment (field-independent basis, Debye-Ang):
   XX=             44.2892   YY=             14.7069   ZZ=            -58.9961
   XY=              0.0000   XZ=             -0.0000   YZ=             -0.0000
 Octapole moment (field-independent basis, Debye-Ang**2):
  XXX=              0.0000  YYY=              0.0000  ZZZ=             -0.0000  XYY=              0.0000
  XXY=             -0.0000  XXZ=             -0.0000  XZZ=              0.0000  YZZ=              0.0000
  YYZ=              0.0000  XYZ=              0.0000
 Hexadecapole moment (field-independent basis, Debye-Ang**3):
 XXXX=         -26076.4781 YYYY=         -27042.8261 ZZZZ=         -12029.3550 XXXY=             -0.0000
 XXXZ=             -0.0000 YYYX=              0.0000 YYYZ=              0.0000 ZZZX=             -0.0000
 ZZZY=              0.0000 XXYY=          -9586.3105 XXZZ=          -7310.3411 YYZZ=          -7450.2119
 XXYZ=              0.0000 YYXZ=              0.0000 ZZXY=             -0.0000
 N-N= 1.364233112544D+04 E-N=-3.503803740361D+04  KE= 3.316018386428D+03
 Symmetry AG   KE= 4.709995899212D+02
 Symmetry B1G  KE= 3.582188794518D+02
 Symmetry B2G  KE= 4.142790296198D+02
 Symmetry B3G  KE= 4.144200197138D+02
 Symmetry AU   KE= 3.590968199493D+02
 Symmetry B1U  KE= 4.724451998494D+02
 Symmetry B2U  KE= 4.133311590452D+02
 Symmetry B3U  KE= 4.132276888769D+02
 Leave Link  601 at Thu May 15 19:11:10 2025, MaxMem=  8053063680 cpu:       150.6
 (Enter /home/sergey/g09/l9999.exe)

 Test job not archived.
 1\1\ WCSS.PL-BEM-KETKOV-PC1\SP\RLC-BLYP TD-FC\Gen\C64H36N16\SERGEY\15-
 May-2025\0\\#p td(nstates=8) lc-blyp/gen iop(3/107=0400000000, 3/108=0
 400000000) geom=check guess=read\\H2Pc dimer lc-blyp(mu=0.4)/def2-tzvp
 (-f), monomer geom b3pw/631dp\\0,1\C,0,0.701674,6.542878,0.\C,0,-0.701
 674,6.542878,0.\C,0,1.42349,5.349643,0.\C,0,0.700602,4.161429,0.\C,0,-
 0.700602,4.161429,0.\C,0,-1.42349,5.349643,0.\C,0,1.093433,2.751318,0.
 \C,0,-1.093433,2.751318,0.\N,0,0.,1.939706,0.\N,0,-2.37706,2.391962,0.
 \N,0,2.37706,2.391962,0.\H,0,1.232091,7.491036,0.\H,0,-1.232091,7.4910
 36,0.\H,0,2.508839,5.340465,0.\H,0,-2.508839,5.340465,0.\C,0,6.550134,
 -0.703892,0.\C,0,6.550134,0.703892,0.\C,0,5.362507,-1.424671,0.\C,0,4.
 167102,-0.705223,0.\C,0,4.167102,0.705223,0.\C,0,5.362507,1.424671,0.\
 C,0,2.784286,-1.141499,0.\C,0,2.784286,1.141499,0.\N,0,2.021288,0.,0.\
 N,0,2.37706,-2.391962,0.\H,0,7.498621,-1.233211,0.\H,0,7.498621,1.2332
 11,0.\H,0,5.351954,-2.509691,0.\H,0,5.351954,2.509691,0.\C,0,-6.550134
 ,0.703892,0.\C,0,-6.550134,-0.703892,0.\C,0,-5.362507,1.424671,0.\C,0,
 -4.167102,0.705223,0.\C,0,-4.167102,-0.705223,0.\C,0,-5.362507,-1.4246
 71,0.\C,0,-2.784286,1.141499,0.\C,0,-2.784286,-1.141499,0.\N,0,-2.0212
 88,0.,0.\N,0,-2.37706,-2.391962,0.\H,0,-7.498621,1.233211,0.\H,0,-7.49
 8621,-1.233211,0.\H,0,-5.351954,2.509691,0.\H,0,-5.351954,-2.509691,0.
 \C,0,-0.701674,-6.542878,0.\C,0,0.701674,-6.542878,0.\C,0,-1.42349,-5.
 349643,0.\C,0,-0.700602,-4.161429,0.\C,0,0.700602,-4.161429,0.\C,0,1.4
 2349,-5.349643,0.\C,0,-1.093433,-2.751318,0.\C,0,1.093433,-2.751318,0.
 \N,0,0.,-1.939706,0.\H,0,-1.232091,-7.491036,0.\H,0,1.232091,-7.491036
 ,0.\H,0,-2.508839,-5.340465,0.\H,0,2.508839,-5.340465,0.\H,0,1.006983,
 0.,0.\H,0,-1.006983,0.,0.\C,0,0.701674,6.542878,4.\C,0,-0.701674,6.542
 878,4.\C,0,1.42349,5.349643,4.\C,0,0.700602,4.161429,4.\C,0,-0.700602,
 4.161429,4.\C,0,-1.42349,5.349643,4.\C,0,1.093433,2.751318,4.\C,0,-1.0
 93433,2.751318,4.\N,0,0.,1.939706,4.\N,0,-2.37706,2.391962,4.\N,0,2.37
 706,2.391962,4.\H,0,1.232091,7.491036,4.\H,0,-1.232091,7.491036,4.\H,0
 ,2.508839,5.340465,4.\H,0,-2.508839,5.340465,4.\C,0,6.550134,-0.703892
 ,4.\C,0,6.550134,0.703892,4.\C,0,5.362507,-1.424671,4.\C,0,4.167102,-0
 .705223,4.\C,0,4.167102,0.705223,4.\C,0,5.362507,1.424671,4.\C,0,2.784
 286,-1.141499,4.\C,0,2.784286,1.141499,4.\N,0,2.021288,0.,4.\N,0,2.377
 06,-2.391962,4.\H,0,7.498621,-1.233211,4.\H,0,7.498621,1.233211,4.\H,0
 ,5.351954,-2.509691,4.\H,0,5.351954,2.509691,4.\C,0,-6.550134,0.703892
 ,4.\C,0,-6.550134,-0.703892,4.\C,0,-5.362507,1.424671,4.\C,0,-4.167102
 ,0.705223,4.\C,0,-4.167102,-0.705223,4.\C,0,-5.362507,-1.424671,4.\C,0
 ,-2.784286,1.141499,4.\C,0,-2.784286,-1.141499,4.\N,0,-2.021288,0.,4.\
 N,0,-2.37706,-2.391962,4.\H,0,-7.498621,1.233211,4.\H,0,-7.498621,-1.2
 33211,4.\H,0,-5.351954,2.509691,4.\H,0,-5.351954,-2.509691,4.\C,0,-0.7
 01674,-6.542878,4.\C,0,0.701674,-6.542878,4.\C,0,-1.42349,-5.349643,4.
 \C,0,-0.700602,-4.161429,4.\C,0,0.700602,-4.161429,4.\C,0,1.42349,-5.3
 49643,4.\C,0,-1.093433,-2.751318,4.\C,0,1.093433,-2.751318,4.\N,0,0.,-
 1.939706,4.\H,0,-1.232091,-7.491036,4.\H,0,1.232091,-7.491036,4.\H,0,-
 2.508839,-5.340465,4.\H,0,2.508839,-5.340465,4.\H,0,1.006983,0.,4.\H,0
 ,-1.006983,0.,4.\\Version=ES64L-G09RevE.01\State=1-AG\HF=-3328.6530891
 \RMSD=7.763e-09\PG=D02H [SG(N4),SG'(H4N4),X(C64H32N8)]\\@


 GOD DOES NOT PLAY WITH DICE.
               -- A. EINSTEIN
 Job cpu time:       0 days 12 hours 41 minutes 47.2 seconds.
 File lengths (MBytes):  RWF=  13261 Int=      0 D2E=      0 Chk=   1685 Scr=      1
 Normal termination of Gaussian 09 at Thu May 15 19:11:11 2025.
