
                                 *****************
                                 * O   R   C   A *
                                 *****************

           --- An Ab Initio, DFT and Semiempirical electronic structure package ---

                  #######################################################
                  #                        -***-                        #
                  #          Department of theory and spectroscopy      #
                  #               Directorship: Frank Neese             #
                  #        Max Planck Institute fuer Kohlenforschung    #
                  #                Kaiser Wilhelm Platz 1               #
                  #                 D-45470 Muelheim/Ruhr               #
                  #                      Germany                        #
                  #                                                     #
                  #                  All rights reserved                #
                  #                        -***-                        #
                  #######################################################


                         Program Version 4.2.1 -  RELEASE  -


 With contributions from (in alphabetic order):
   Daniel Aravena         : Magnetic Suceptibility
   Michael Atanasov       : Ab Initio Ligand Field Theory (pilot matlab implementation)
   Alexander A. Auer      : GIAO ZORA, VPT2
   Ute Becker             : Parallelization
   Giovanni Bistoni       : ED, misc. LED, open-shell LED, HFLD
   Martin Brehm           : Molecular dynamics
   Dmytro Bykov           : SCF Hessian
   Vijay G. Chilkuri      : MRCI spin determinant printing, contributions to CSF-ICE
   Dipayan Datta          : RHF DLPNO-CCSD density
   Achintya Kumar Dutta   : EOM-CC, STEOM-CC
   Dmitry Ganyushin       : Spin-Orbit,Spin-Spin,Magnetic field MRCI
   Miquel Garcia          : C-PCM Hessian, Gaussian charge scheme
   Yang Guo               : DLPNO-NEVPT2, CIM, IAO-localization
   Andreas Hansen         : Spin unrestricted coupled pair/coupled cluster methods
   Benjamin Helmich-Paris : CASSCF linear response (MC-RPA)
   Lee Huntington         : MR-EOM, pCC
   Robert Izsak           : Overlap fitted RIJCOSX, COSX-SCS-MP3, EOM
   Christian Kollmar      : KDIIS, OOCD, Brueckner-CCSD(T), CCSD density
   Simone Kossmann        : Meta GGA functionals, TD-DFT gradient, OOMP2, MP2 Hessian
   Martin Krupicka        : AUTO-CI
   Lucas Lang             : DCDCAS
   Dagmar Lenk            : GEPOL surface, SMD
   Dimitrios Liakos       : Extrapolation schemes; Compound Job, initial MDCI parallelization
   Dimitrios Manganas     : Further ROCIS development; embedding schemes
   Dimitrios Pantazis     : SARC Basis sets
   Taras Petrenko         : DFT Hessian,TD-DFT gradient, ASA, ECA, R-Raman, ABS, FL, XAS/XES, NRVS
   Peter Pinski           : DLPNO-MP2, DLPNO-MP2 Gradient
   Christoph Reimann      : Effective Core Potentials
   Marius Retegan         : Local ZFS, SOC
   Christoph Riplinger    : Optimizer, TS searches, QM/MM, DLPNO-CCSD(T), (RO)-DLPNO pert. Triples
   Tobias Risthaus        : Range-separated hybrids, TD-DFT gradient, RPA, STAB
   Michael Roemelt        : Original ROCIS implementation
   Masaaki Saitow         : Open-shell DLPNO-CCSD energy and density
   Barbara Sandhoefer     : DKH picture change effects
   Avijit Sen             : IP-ROCIS
   Kantharuban Sivalingam : CASSCF convergence, NEVPT2, FIC-MRCI
   Bernardo de Souza      : ESD, SOC TD-DFT
   Georgi Stoychev        : AutoAux, RI-MP2 NMR
   Willem Van den Heuvel  : Paramagnetic NMR
   Boris Wezisla          : Elementary symmetry handling
   Frank Wennmohs         : Technical directorship


 We gratefully acknowledge several colleagues who have allowed us to
 interface, adapt or use parts of their codes:
   Stefan Grimme, W. Hujo, H. Kruse,             : VdW corrections, initial TS optimization,
                  C. Bannwarth                     DFT functionals, gCP, sTDA/sTD-DF
   Ed Valeev, F. Pavosevic, A. Kumar             : LibInt (2-el integral package), F12 methods
   Garnet Chan, S. Sharma, J. Yang, R. Olivares  : DMRG
   Ulf Ekstrom                                   : XCFun DFT Library
   Mihaly Kallay                                 : mrcc  (arbitrary order and MRCC methods)
   Andreas Klamt, Michael Diedenhofen            : otool_cosmo (COSMO solvation model)
   Jiri Pittner, Ondrej Demel                    : Mk-CCSD
   Frank Weinhold                                : gennbo (NPA and NBO analysis)
   Christopher J. Cramer and Donald G. Truhlar   : smd solvation model
   Lars Goerigk                                  : TD-DFT with DH, B97 family of functionals
   V. Asgeirsson, H. Jonsson                     : NEB implementation
   FAccTs GmbH                                   : IRC, NEB, NEB-TS, Multilevel, MM, QM/MM, CI optimization
   S Lehtola, MJT Oliveira, MAL Marques          : LibXC Library


 Your calculation uses the libint2 library for the computation of 2-el integrals
 For citations please refer to: http://libint.valeyev.net

 Your ORCA version has been built with support for libXC version: 4.2.3
 For citations please refer to: https://tddft.org/programs/libxc/

 This ORCA versions uses:
   CBLAS   interface :  Fast vector & matrix operations
   LAPACKE interface :  Fast linear algebra routines
   SCALAPACK package :  Parallel linear algebra routines


XCFun DFT library Copyright 2009-2010 Ulf Ekstrom and contributors.
See http://admol.org/xcfun for more information. This is free soft-
ware; see the source code for copying conditions. There is ABSOLUTELY
NO WARRANTY; not even for MERCHANTABILITY or FITNESS FOR A PARTICULAR
PURPOSE. For details see the documentation. Scientific users of this 
library should cite U. Ekstrom, L. Visscher, R. Bast, A. J. Thorvald-
sen and K. Ruud; J.Chem.Theor.Comp. 2010, DOI: 10.1021/ct100117s
XCFun Version 0.99 
----- Orbital basis set information -----
Your calculation utilizes the basis: def2-TZVP(-f)
   F. Weigend and R. Ahlrichs, Phys. Chem. Chem. Phys. 7, 3297 (2005).

----- AuxJ basis set information -----
Your calculation utilizes the auxiliary basis: def2/J
   F. Weigend, Phys. Chem. Chem. Phys. 8, 1057 (2006).

================================================================================
                                        WARNINGS
                       Please study these warnings very carefully!
================================================================================

INFO   : Checking CIS options ...

INFO   : Since TDDFT/CIS Mode == RPA_AOINTS, the TAMMDANCOFF/TDA keyword is ignored. 


WARNING: CIS/ROCIS methods need fully converged wavefunctions
  ===> : Setting SCFConvForced true
         You can overwrite this default with %scf ConvForced false 


INFO   : the flag for use of LIBINT has been found!

================================================================================
                                       INPUT FILE
================================================================================
NAME = /media/sergey/13535849-ad93-4f10-b86f-8977b641d08c/makar/me4Zn/me4Zn.inp
|  1> ! def2-tzvp(-f) def2/j lc-blyp pal5 rijcosx grid5 nofinalgrid gridx5 nofinalgridx
|  2> 
|  3> %maxcore 8600
|  4> 
|  5> %method
|  6> rangesepmu 0.4
|  7> end
|  8> 
|  9> %tddft
| 10> tda false
| 11> nroots 40
| 12> end
| 13> 
| 14> * xyz 0 1
| 15>  C                 -1.27840900    0.70644300    0.00000000
| 16>  C                 -1.27840900   -0.70644300    0.00000000
| 17>  C                  0.00000000    1.54325800    0.00000000
| 18>  C                  0.00000000    2.43532000    1.26620800
| 19>  C                  0.00000000    2.43532000   -1.26620800
| 20>  C                  0.00000000   -1.54325800    0.00000000
| 21>  C                  0.00000000   -2.43532000   -1.26620800
| 22>  C                  0.00000000   -2.43532000    1.26620800
| 23>  C                  1.27840900   -0.70644300    0.00000000
| 24>  C                  1.27840900    0.70644300    0.00000000
| 25>  C                 -8.56944600   -6.55635400    0.00000000
| 26>  C                 -9.29032100   -5.36560500    0.00000000
| 27>  C                 -8.57032700   -4.17265600    0.00000000
| 28>  C                 -8.98353000   -2.77497100    0.00000000
| 29>  C                 -8.56944600    6.55635400    0.00000000
| 30>  C                 -9.29032100    5.36560500    0.00000000
| 31>  C                 -8.57032700    4.17265600    0.00000000
| 32>  C                 -8.98353000    2.77497100    0.00000000
| 33>  C                 -7.16351800   -6.55636900    0.00000000
| 34>  C                 -6.44295200   -5.36547900    0.00000000
| 35>  C                 -7.16320100   -4.17264400    0.00000000
| 36>  C                 -6.75026900   -2.77493800    0.00000000
| 37>  C                 -7.16351800    6.55636900    0.00000000
| 38>  C                 -6.44295200    5.36547900    0.00000000
| 39>  C                 -7.16320100    4.17264400    0.00000000
| 40>  C                 -6.75026900    2.77493800    0.00000000
| 41>  C                -14.42236300   -0.70303300    0.00000000
| 42>  C                -13.23172000   -1.42378900    0.00000000
| 43>  C                -12.03866300   -0.70365300    0.00000000
| 44>  C                -10.64127500   -1.11652700    0.00000000
| 45>  C                -14.42236300    0.70303300    0.00000000
| 46>  C                -13.23172000    1.42378900    0.00000000
| 47>  C                -12.03866300    0.70365300    0.00000000
| 48>  C                -10.64127500    1.11652700    0.00000000
| 49>  C                 -2.49943200   -1.40071100    0.00000000
| 50>  C                 -3.69399100   -0.70161400    0.00000000
| 51>  C                 -5.09117900   -1.11811500    0.00000000
| 52>  C                 -2.49943200    1.40071100    0.00000000
| 53>  C                 -3.69399100    0.70161400    0.00000000
| 54>  C                 -5.09117900    1.11811500    0.00000000
| 55>  N                 -7.86574600   -1.98292600    0.00000000
| 56>  N                 -7.86574600    1.98292600    0.00000000
| 57>  N                 -9.84926400    0.00000000    0.00000000
| 58>  N                 -5.88240900    0.00000000    0.00000000
| 59>  N                -10.25105600   -2.38515700    0.00000000
| 60>  N                -10.25105600    2.38515700    0.00000000
| 61>  N                 -5.48087600   -2.38564900    0.00000000
| 62>  N                 -5.48087600    2.38564900    0.00000000
| 63>  Zn                -7.86656500    0.00000000    0.00000000
| 64>  C                  7.16351800   -6.55636900    0.00000000
| 65>  C                  6.44295200   -5.36547900    0.00000000
| 66>  C                  7.16320100   -4.17264400    0.00000000
| 67>  C                  6.75026900   -2.77493800    0.00000000
| 68>  C                  7.16351800    6.55636900    0.00000000
| 69>  C                  6.44295200    5.36547900    0.00000000
| 70>  C                  7.16320100    4.17264400    0.00000000
| 71>  C                  6.75026900    2.77493800    0.00000000
| 72>  C                  8.56944600   -6.55635400    0.00000000
| 73>  C                  9.29032100   -5.36560500    0.00000000
| 74>  C                  8.57032700   -4.17265600    0.00000000
| 75>  C                  8.98353000   -2.77497100    0.00000000
| 76>  C                  8.56944600    6.55635400    0.00000000
| 77>  C                  9.29032100    5.36560500    0.00000000
| 78>  C                  8.57032700    4.17265600    0.00000000
| 79>  C                  8.98353000    2.77497100    0.00000000
| 80>  C                  2.49943200   -1.40071100    0.00000000
| 81>  C                  3.69399100   -0.70161400    0.00000000
| 82>  C                  5.09117900   -1.11811500    0.00000000
| 83>  C                  2.49943200    1.40071100    0.00000000
| 84>  C                  3.69399100    0.70161400    0.00000000
| 85>  C                  5.09117900    1.11811500    0.00000000
| 86>  C                 14.42236300   -0.70303300    0.00000000
| 87>  C                 13.23172000   -1.42378900    0.00000000
| 88>  C                 12.03866300   -0.70365300    0.00000000
| 89>  C                 10.64127500   -1.11652700    0.00000000
| 90>  C                 14.42236300    0.70303300    0.00000000
| 91>  C                 13.23172000    1.42378900    0.00000000
| 92>  C                 12.03866300    0.70365300    0.00000000
| 93>  C                 10.64127500    1.11652700    0.00000000
| 94>  N                  7.86574600   -1.98292600    0.00000000
| 95>  N                  7.86574600    1.98292600    0.00000000
| 96>  N                  5.88240900    0.00000000    0.00000000
| 97>  N                  9.84926400    0.00000000    0.00000000
| 98>  N                  5.48087600   -2.38564900    0.00000000
| 99>  N                  5.48087600    2.38564900    0.00000000
|100>  N                 10.25105600   -2.38515700    0.00000000
|101>  N                 10.25105600    2.38515700    0.00000000
|102>  Zn                 7.86656500    0.00000000    0.00000000
|103>  H                  0.88282400    3.08149500    1.29579900
|104>  H                 -0.88282400    3.08149500    1.29579900
|105>  H                  0.00000000    1.81963200    2.17174200
|106>  H                  0.88282400    3.08149500   -1.29579900
|107>  H                  0.00000000    1.81963200   -2.17174200
|108>  H                 -0.88282400    3.08149500   -1.29579900
|109>  H                  0.88282400   -3.08149500   -1.29579900
|110>  H                 -0.88282400   -3.08149500   -1.29579900
|111>  H                  0.00000000   -1.81963200   -2.17174200
|112>  H                  0.88282400   -3.08149500    1.29579900
|113>  H                  0.00000000   -1.81963200    2.17174200
|114>  H                 -0.88282400   -3.08149500    1.29579900
|115>  H                 -9.09991100   -7.50510100    0.00000000
|116>  H                -10.37619200   -5.35683500    0.00000000
|117>  H                 -9.09991100    7.50510100    0.00000000
|118>  H                -10.37619200    5.35683500    0.00000000
|119>  H                 -6.63301700   -7.50509800    0.00000000
|120>  H                 -5.35706900   -5.35651500    0.00000000
|121>  H                 -6.63301700    7.50509800    0.00000000
|122>  H                 -5.35706900    5.35651500    0.00000000
|123>  H                -15.37113000   -1.23347300    0.00000000
|124>  H                -13.22291300   -2.50966600    0.00000000
|125>  H                -15.37113000    1.23347300    0.00000000
|126>  H                -13.22291300    2.50966600    0.00000000
|127>  H                 -2.52474400   -2.48586800    0.00000000
|128>  H                 -2.52474400    2.48586800    0.00000000
|129>  H                  6.63301700   -7.50509800    0.00000000
|130>  H                  5.35706900   -5.35651500    0.00000000
|131>  H                  6.63301700    7.50509800    0.00000000
|132>  H                  5.35706900    5.35651500    0.00000000
|133>  H                  9.09991100   -7.50510100    0.00000000
|134>  H                 10.37619200   -5.35683500    0.00000000
|135>  H                  9.09991100    7.50510100    0.00000000
|136>  H                 10.37619200    5.35683500    0.00000000
|137>  H                  2.52474400   -2.48586800    0.00000000
|138>  H                  2.52474400    2.48586800    0.00000000
|139>  H                 15.37113000   -1.23347300    0.00000000
|140>  H                 13.22291300   -2.50966600    0.00000000
|141>  H                 15.37113000    1.23347300    0.00000000
|142>  H                 13.22291300    2.50966600    0.00000000
|143> *
|144> 
|145> 
|146>                          ****END OF INPUT****
================================================================================

                       ****************************
                       * Single Point Calculation *
                       ****************************

---------------------------------
CARTESIAN COORDINATES (ANGSTROEM)
---------------------------------
  C     -1.278409    0.706443    0.000000
  C     -1.278409   -0.706443    0.000000
  C      0.000000    1.543258    0.000000
  C      0.000000    2.435320    1.266208
  C      0.000000    2.435320   -1.266208
  C      0.000000   -1.543258    0.000000
  C      0.000000   -2.435320   -1.266208
  C      0.000000   -2.435320    1.266208
  C      1.278409   -0.706443    0.000000
  C      1.278409    0.706443    0.000000
  C     -8.569446   -6.556354    0.000000
  C     -9.290321   -5.365605    0.000000
  C     -8.570327   -4.172656    0.000000
  C     -8.983530   -2.774971    0.000000
  C     -8.569446    6.556354    0.000000
  C     -9.290321    5.365605    0.000000
  C     -8.570327    4.172656    0.000000
  C     -8.983530    2.774971    0.000000
  C     -7.163518   -6.556369    0.000000
  C     -6.442952   -5.365479    0.000000
  C     -7.163201   -4.172644    0.000000
  C     -6.750269   -2.774938    0.000000
  C     -7.163518    6.556369    0.000000
  C     -6.442952    5.365479    0.000000
  C     -7.163201    4.172644    0.000000
  C     -6.750269    2.774938    0.000000
  C    -14.422363   -0.703033    0.000000
  C    -13.231720   -1.423789    0.000000
  C    -12.038663   -0.703653    0.000000
  C    -10.641275   -1.116527    0.000000
  C    -14.422363    0.703033    0.000000
  C    -13.231720    1.423789    0.000000
  C    -12.038663    0.703653    0.000000
  C    -10.641275    1.116527    0.000000
  C     -2.499432   -1.400711    0.000000
  C     -3.693991   -0.701614    0.000000
  C     -5.091179   -1.118115    0.000000
  C     -2.499432    1.400711    0.000000
  C     -3.693991    0.701614    0.000000
  C     -5.091179    1.118115    0.000000
  N     -7.865746   -1.982926    0.000000
  N     -7.865746    1.982926    0.000000
  N     -9.849264    0.000000    0.000000
  N     -5.882409    0.000000    0.000000
  N    -10.251056   -2.385157    0.000000
  N    -10.251056    2.385157    0.000000
  N     -5.480876   -2.385649    0.000000
  N     -5.480876    2.385649    0.000000
  Zn    -7.866565    0.000000    0.000000
  C      7.163518   -6.556369    0.000000
  C      6.442952   -5.365479    0.000000
  C      7.163201   -4.172644    0.000000
  C      6.750269   -2.774938    0.000000
  C      7.163518    6.556369    0.000000
  C      6.442952    5.365479    0.000000
  C      7.163201    4.172644    0.000000
  C      6.750269    2.774938    0.000000
  C      8.569446   -6.556354    0.000000
  C      9.290321   -5.365605    0.000000
  C      8.570327   -4.172656    0.000000
  C      8.983530   -2.774971    0.000000
  C      8.569446    6.556354    0.000000
  C      9.290321    5.365605    0.000000
  C      8.570327    4.172656    0.000000
  C      8.983530    2.774971    0.000000
  C      2.499432   -1.400711    0.000000
  C      3.693991   -0.701614    0.000000
  C      5.091179   -1.118115    0.000000
  C      2.499432    1.400711    0.000000
  C      3.693991    0.701614    0.000000
  C      5.091179    1.118115    0.000000
  C     14.422363   -0.703033    0.000000
  C     13.231720   -1.423789    0.000000
  C     12.038663   -0.703653    0.000000
  C     10.641275   -1.116527    0.000000
  C     14.422363    0.703033    0.000000
  C     13.231720    1.423789    0.000000
  C     12.038663    0.703653    0.000000
  C     10.641275    1.116527    0.000000
  N      7.865746   -1.982926    0.000000
  N      7.865746    1.982926    0.000000
  N      5.882409    0.000000    0.000000
  N      9.849264    0.000000    0.000000
  N      5.480876   -2.385649    0.000000
  N      5.480876    2.385649    0.000000
  N     10.251056   -2.385157    0.000000
  N     10.251056    2.385157    0.000000
  Zn     7.866565    0.000000    0.000000
  H      0.882824    3.081495    1.295799
  H     -0.882824    3.081495    1.295799
  H      0.000000    1.819632    2.171742
  H      0.882824    3.081495   -1.295799
  H      0.000000    1.819632   -2.171742
  H     -0.882824    3.081495   -1.295799
  H      0.882824   -3.081495   -1.295799
  H     -0.882824   -3.081495   -1.295799
  H      0.000000   -1.819632   -2.171742
  H      0.882824   -3.081495    1.295799
  H      0.000000   -1.819632    2.171742
  H     -0.882824   -3.081495    1.295799
  H     -9.099911   -7.505101    0.000000
  H    -10.376192   -5.356835    0.000000
  H     -9.099911    7.505101    0.000000
  H    -10.376192    5.356835    0.000000
  H     -6.633017   -7.505098    0.000000
  H     -5.357069   -5.356515    0.000000
  H     -6.633017    7.505098    0.000000
  H     -5.357069    5.356515    0.000000
  H    -15.371130   -1.233473    0.000000
  H    -13.222913   -2.509666    0.000000
  H    -15.371130    1.233473    0.000000
  H    -13.222913    2.509666    0.000000
  H     -2.524744   -2.485868    0.000000
  H     -2.524744    2.485868    0.000000
  H      6.633017   -7.505098    0.000000
  H      5.357069   -5.356515    0.000000
  H      6.633017    7.505098    0.000000
  H      5.357069    5.356515    0.000000
  H      9.099911   -7.505101    0.000000
  H     10.376192   -5.356835    0.000000
  H      9.099911    7.505101    0.000000
  H     10.376192    5.356835    0.000000
  H      2.524744   -2.485868    0.000000
  H      2.524744    2.485868    0.000000
  H     15.371130   -1.233473    0.000000
  H     13.222913   -2.509666    0.000000
  H     15.371130    1.233473    0.000000
  H     13.222913    2.509666    0.000000

----------------------------
CARTESIAN COORDINATES (A.U.)
----------------------------
  NO LB      ZA    FRAG     MASS         X           Y           Z
   0 C     6.0000    0    12.011   -2.415843    1.334984    0.000000
   1 C     6.0000    0    12.011   -2.415843   -1.334984    0.000000
   2 C     6.0000    0    12.011    0.000000    2.916335    0.000000
   3 C     6.0000    0    12.011    0.000000    4.602088    2.392786
   4 C     6.0000    0    12.011    0.000000    4.602088   -2.392786
   5 C     6.0000    0    12.011    0.000000   -2.916335    0.000000
   6 C     6.0000    0    12.011    0.000000   -4.602088   -2.392786
   7 C     6.0000    0    12.011    0.000000   -4.602088    2.392786
   8 C     6.0000    0    12.011    2.415843   -1.334984    0.000000
   9 C     6.0000    0    12.011    2.415843    1.334984    0.000000
  10 C     6.0000    0    12.011  -16.193906  -12.389713    0.000000
  11 C     6.0000    0    12.011  -17.556162  -10.139524    0.000000
  12 C     6.0000    0    12.011  -16.195571   -7.885177    0.000000
  13 C     6.0000    0    12.011  -16.976411   -5.243935    0.000000
  14 C     6.0000    0    12.011  -16.193906   12.389713    0.000000
  15 C     6.0000    0    12.011  -17.556162   10.139524    0.000000
  16 C     6.0000    0    12.011  -16.195571    7.885177    0.000000
  17 C     6.0000    0    12.011  -16.976411    5.243935    0.000000
  18 C     6.0000    0    12.011  -13.537087  -12.389742    0.000000
  19 C     6.0000    0    12.011  -12.175415  -10.139286    0.000000
  20 C     6.0000    0    12.011  -13.536488   -7.885154    0.000000
  21 C     6.0000    0    12.011  -12.756160   -5.243873    0.000000
  22 C     6.0000    0    12.011  -13.537087   12.389742    0.000000
  23 C     6.0000    0    12.011  -12.175415   10.139286    0.000000
  24 C     6.0000    0    12.011  -13.536488    7.885154    0.000000
  25 C     6.0000    0    12.011  -12.756160    5.243873    0.000000
  26 C     6.0000    0    12.011  -27.254316   -1.328540    0.000000
  27 C     6.0000    0    12.011  -25.004327   -2.690571    0.000000
  28 C     6.0000    0    12.011  -22.749776   -1.329711    0.000000
  29 C     6.0000    0    12.011  -20.109095   -2.109930    0.000000
  30 C     6.0000    0    12.011  -27.254316    1.328540    0.000000
  31 C     6.0000    0    12.011  -25.004327    2.690571    0.000000
  32 C     6.0000    0    12.011  -22.749776    1.329711    0.000000
  33 C     6.0000    0    12.011  -20.109095    2.109930    0.000000
  34 C     6.0000    0    12.011   -4.723242   -2.646960    0.000000
  35 C     6.0000    0    12.011   -6.980631   -1.325858    0.000000
  36 C     6.0000    0    12.011   -9.620934   -2.112931    0.000000
  37 C     6.0000    0    12.011   -4.723242    2.646960    0.000000
  38 C     6.0000    0    12.011   -6.980631    1.325858    0.000000
  39 C     6.0000    0    12.011   -9.620934    2.112931    0.000000
  40 N     7.0000    0    14.007  -14.864106   -3.747187    0.000000
  41 N     7.0000    0    14.007  -14.864106    3.747187    0.000000
  42 N     7.0000    0    14.007  -18.612412    0.000000    0.000000
  43 N     7.0000    0    14.007  -11.116142    0.000000    0.000000
  44 N     7.0000    0    14.007  -19.371688   -4.507294    0.000000
  45 N     7.0000    0    14.007  -19.371688    4.507294    0.000000
  46 N     7.0000    0    14.007  -10.357355   -4.508223    0.000000
  47 N     7.0000    0    14.007  -10.357355    4.508223    0.000000
  48 Zn   30.0000    0    65.380  -14.865653    0.000000    0.000000
  49 C     6.0000    0    12.011   13.537087  -12.389742    0.000000
  50 C     6.0000    0    12.011   12.175415  -10.139286    0.000000
  51 C     6.0000    0    12.011   13.536488   -7.885154    0.000000
  52 C     6.0000    0    12.011   12.756160   -5.243873    0.000000
  53 C     6.0000    0    12.011   13.537087   12.389742    0.000000
  54 C     6.0000    0    12.011   12.175415   10.139286    0.000000
  55 C     6.0000    0    12.011   13.536488    7.885154    0.000000
  56 C     6.0000    0    12.011   12.756160    5.243873    0.000000
  57 C     6.0000    0    12.011   16.193906  -12.389713    0.000000
  58 C     6.0000    0    12.011   17.556162  -10.139524    0.000000
  59 C     6.0000    0    12.011   16.195571   -7.885177    0.000000
  60 C     6.0000    0    12.011   16.976411   -5.243935    0.000000
  61 C     6.0000    0    12.011   16.193906   12.389713    0.000000
  62 C     6.0000    0    12.011   17.556162   10.139524    0.000000
  63 C     6.0000    0    12.011   16.195571    7.885177    0.000000
  64 C     6.0000    0    12.011   16.976411    5.243935    0.000000
  65 C     6.0000    0    12.011    4.723242   -2.646960    0.000000
  66 C     6.0000    0    12.011    6.980631   -1.325858    0.000000
  67 C     6.0000    0    12.011    9.620934   -2.112931    0.000000
  68 C     6.0000    0    12.011    4.723242    2.646960    0.000000
  69 C     6.0000    0    12.011    6.980631    1.325858    0.000000
  70 C     6.0000    0    12.011    9.620934    2.112931    0.000000
  71 C     6.0000    0    12.011   27.254316   -1.328540    0.000000
  72 C     6.0000    0    12.011   25.004327   -2.690571    0.000000
  73 C     6.0000    0    12.011   22.749776   -1.329711    0.000000
  74 C     6.0000    0    12.011   20.109095   -2.109930    0.000000
  75 C     6.0000    0    12.011   27.254316    1.328540    0.000000
  76 C     6.0000    0    12.011   25.004327    2.690571    0.000000
  77 C     6.0000    0    12.011   22.749776    1.329711    0.000000
  78 C     6.0000    0    12.011   20.109095    2.109930    0.000000
  79 N     7.0000    0    14.007   14.864106   -3.747187    0.000000
  80 N     7.0000    0    14.007   14.864106    3.747187    0.000000
  81 N     7.0000    0    14.007   11.116142    0.000000    0.000000
  82 N     7.0000    0    14.007   18.612412    0.000000    0.000000
  83 N     7.0000    0    14.007   10.357355   -4.508223    0.000000
  84 N     7.0000    0    14.007   10.357355    4.508223    0.000000
  85 N     7.0000    0    14.007   19.371688   -4.507294    0.000000
  86 N     7.0000    0    14.007   19.371688    4.507294    0.000000
  87 Zn   30.0000    0    65.380   14.865653    0.000000    0.000000
  88 H     1.0000    0     1.008    1.668296    5.823182    2.448705
  89 H     1.0000    0     1.008   -1.668296    5.823182    2.448705
  90 H     1.0000    0     1.008    0.000000    3.438606    4.103998
  91 H     1.0000    0     1.008    1.668296    5.823182   -2.448705
  92 H     1.0000    0     1.008    0.000000    3.438606   -4.103998
  93 H     1.0000    0     1.008   -1.668296    5.823182   -2.448705
  94 H     1.0000    0     1.008    1.668296   -5.823182   -2.448705
  95 H     1.0000    0     1.008   -1.668296   -5.823182   -2.448705
  96 H     1.0000    0     1.008    0.000000   -3.438606   -4.103998
  97 H     1.0000    0     1.008    1.668296   -5.823182    2.448705
  98 H     1.0000    0     1.008    0.000000   -3.438606    4.103998
  99 H     1.0000    0     1.008   -1.668296   -5.823182    2.448705
 100 H     1.0000    0     1.008  -17.196340  -14.182585    0.000000
 101 H     1.0000    0     1.008  -19.608161  -10.122951    0.000000
 102 H     1.0000    0     1.008  -17.196340   14.182585    0.000000
 103 H     1.0000    0     1.008  -19.608161   10.122951    0.000000
 104 H     1.0000    0     1.008  -12.534586  -14.182580    0.000000
 105 H     1.0000    0     1.008  -10.123393  -10.122346    0.000000
 106 H     1.0000    0     1.008  -12.534586   14.182580    0.000000
 107 H     1.0000    0     1.008  -10.123393   10.122346    0.000000
 108 H     1.0000    0     1.008  -29.047226   -2.330926    0.000000
 109 H     1.0000    0     1.008  -24.987684   -4.742581    0.000000
 110 H     1.0000    0     1.008  -29.047226    2.330926    0.000000
 111 H     1.0000    0     1.008  -24.987684    4.742581    0.000000
 112 H     1.0000    0     1.008   -4.771075   -4.697610    0.000000
 113 H     1.0000    0     1.008   -4.771075    4.697610    0.000000
 114 H     1.0000    0     1.008   12.534586  -14.182580    0.000000
 115 H     1.0000    0     1.008   10.123393  -10.122346    0.000000
 116 H     1.0000    0     1.008   12.534586   14.182580    0.000000
 117 H     1.0000    0     1.008   10.123393   10.122346    0.000000
 118 H     1.0000    0     1.008   17.196340  -14.182585    0.000000
 119 H     1.0000    0     1.008   19.608161  -10.122951    0.000000
 120 H     1.0000    0     1.008   17.196340   14.182585    0.000000
 121 H     1.0000    0     1.008   19.608161   10.122951    0.000000
 122 H     1.0000    0     1.008    4.771075   -4.697610    0.000000
 123 H     1.0000    0     1.008    4.771075    4.697610    0.000000
 124 H     1.0000    0     1.008   29.047226   -2.330926    0.000000
 125 H     1.0000    0     1.008   24.987684   -4.742581    0.000000
 126 H     1.0000    0     1.008   29.047226    2.330926    0.000000
 127 H     1.0000    0     1.008   24.987684    4.742581    0.000000

--------------------------------
INTERNAL COORDINATES (ANGSTROEM)
--------------------------------
 C      0   0   0     0.000000000000     0.00000000     0.00000000
 C      1   0   0     1.412886000000     0.00000000     0.00000000
 C      1   2   0     1.527936162117   123.20776885     0.00000000
 C      3   1   2     1.548889057069   108.38659812   239.48233637
 C      3   1   2     1.548889057069   108.38659812   120.51766363
 C      2   1   3     1.527936162117   123.20776885     0.00000000
 C      6   2   1     1.548889057069   108.38659812   239.48233637
 C      6   2   1     1.548889057069   108.38659812   120.51766363
 C      6   2   1     1.527936162117   113.58446230     0.00000000
 C      9   6   2     1.412886000000   123.20776885     0.00000000
 C      2   1   3     9.347763328374   128.74156368   180.00000000
 C     11   2   1     1.391956876712    82.44899241     0.00000000
 C     12  11   2     1.393383894208   117.69672778     0.00000000
 C     13  12  11     1.457484160612   132.41782084   180.00000000
 C     14  13  12     9.340508113303   160.98966408   180.00000085
 C     15  14  13     1.391956876712    28.64968321   180.00000000
 C     16  15  14     1.393383894208   117.69672778     0.00000000
 C     17  16  15     1.457484160612   132.41782084   180.00000000
 C     11   2   1     1.405928000080    38.74217498   180.00000000
 C     19  11   2     1.391917509214   121.17605816     0.00000000
 C     20  19  11     1.393418084864   117.69921523     0.00000000
 C     21  20  19     1.457427493586   132.41687240   180.00000000
 C     15  14  13     1.405928000080    92.54148418     0.00000000
 C     23  15  14     1.391917509214   121.17605816     0.00000000
 C     24  23  15     1.393418084864   117.69921523     0.00000000
 C     25  24  23     1.457427493586   132.41687240   180.00000000
 C     14  13  12     5.820122977887   127.32393597     0.00000000
 C     27  14  13     1.391804571405    10.33415235     0.00000000
 C     28  27  14     1.393549734938   117.69595456     0.00000000
 C     29  28  27     1.457106091683   132.42421193   180.00000000
 C     27  14  13     1.406066000000   110.85447293   180.00000000
 C     31  27  14     1.391804571405   121.18862528     0.00000000
 C     32  31  27     1.393549734938   117.69595456     0.00000000
 C     33  32  31     1.457106091683   132.42421193   180.00000000
 C      2   1   3     1.404601446088   119.62235887   180.00000000
 C     35   2   1     1.384090972404   120.04000286     0.00000000
 C     36  35   2     1.457946291996   133.06307100   180.00000000
 C      1   2   3     1.404601446088   119.62235887   180.00000000
 C     38   1   2     1.384090972404   120.04000286     0.00000000
 C     39  38   1     1.457946291996   133.06307100   180.00000000
 N     22  21  20     1.368054072642   108.91653626   180.00000000
 N     26  25  24     1.368054072642   108.91653626   180.00000000
 N     30  29  28     1.368909772721   108.88970366   180.00000000
 N     37  36  35     1.369754016649   108.68570377   180.00000000
 N     14  13  12     1.326113537851   123.56418074     0.00000000
 N     18  17  16     1.326113537851   123.56418074     0.00000000
 N     37  36  35     1.326086796920   123.68907498     0.00000000
 N     40  39  38     1.326086796920   123.68907498     0.00000000
 Zn    43  30  29     1.982699000000   125.35007158   180.00000000
 C      9   6   2     8.297960119653   101.96401005   180.00000000
 C     50   9   6     1.391917509214    13.99510945   180.00000000
 C     51  50   9     1.393418084864   117.69921523   180.00000000
 C     52  51  50     1.457427493586   132.41687240   180.00000000
 C     10   9   6     8.297960119653   134.82822110   180.00000000
 C     54  10   9     1.391917509214    13.99510945     0.00000000
 C     55  54  10     1.393418084864   117.69921523   180.00000000
 C     56  55  54     1.457427493586   132.41687240   180.00000000
 C     50   9   6     1.405928000080   135.17116760   180.00000000
 C     58  50   9     1.391956876712   121.19116739     0.00000000
 C     59  58  50     1.393383894208   117.69672778     0.00000000
 C     60  59  58     1.457484160612   132.41782084   180.00000000
 C     54  10   9     1.405928000080   135.17116760     0.00000000
 C     62  54  10     1.391956876712   121.19116739     0.00000000
 C     63  62  54     1.393383894208   117.69672778     0.00000000
 C     64  63  62     1.457484160612   132.41782084   180.00000000
 C      9   6   2     1.404601446088   117.16987228   180.00000085
 C     66   9   6     1.384090972404   120.04000286   180.00000000
 C     67  66   9     1.457946291996   133.06307100   180.00000000
 C     10   9   6     1.404601446088   119.62235887   180.00000000
 C     69  10   9     1.384090972404   120.04000286     0.00000000
 C     70  69  10     1.457946291996   133.06307100   180.00000000
 C     61  60  59     5.820122977887   127.32393597     0.00000000
 C     72  61  60     1.391804571405    10.33415235     0.00000000
 C     73  72  61     1.393549734938   117.69595456     0.00000000
 C     74  73  72     1.457106091683   132.42421193   180.00000000
 C     72  61  60     1.406066000000   110.85447293   180.00000000
 C     76  72  61     1.391804571405   121.18862528     0.00000000
 C     77  76  72     1.393549734938   117.69595456     0.00000000
 C     78  77  76     1.457106091683   132.42421193   180.00000000
 N     53  52  51     1.368054072642   108.91653626   180.00000000
 N     57  56  55     1.368054072642   108.91653626   180.00000000
 N     68  67  66     1.369754016649   108.68570377   180.00000000
 N     75  74  73     1.368909772721   108.88970366   180.00000000
 N     68  67  66     1.326086796920   123.68907498     0.00000000
 N     71  70  69     1.326086796920   123.68907498     0.00000000
 N     61  60  59     1.326113537851   123.56418074     0.00000000
 N     65  64  63     1.326113537851   123.56418074     0.00000000
 Zn    83  75  74     1.982699000000   125.35007158   180.00000000
 H      4   3   1     1.094438656518   111.23203482   181.92136068
 H      4   3   1     1.094438656518   111.23203482   301.77513333
 H      4   3   1     1.095017597347   110.62229424    61.84824701
 H      5   3   1     1.094438656518   111.23203482   178.07863932
 H      5   3   1     1.095017597347   110.62229424   298.15175299
 H      5   3   1     1.094438656518   111.23203482    58.22486667
 H      7   6   2     1.094438656518   111.23203482   181.92136068
 H      7   6   2     1.094438656518   111.23203482   301.77513333
 H      7   6   2     1.095017597347   110.62229424    61.84824701
 H      8   6   2     1.094438656518   111.23203482   178.07863932
 H      8   6   2     1.095017597347   110.62229424   298.15175299
 H      8   6   2     1.094438656518   111.23203482    58.22486667
 H     11   2   1     1.086974694385   157.95206491   180.00000000
 H     12  11   2     1.085906414725   121.65329344   180.00000000
 H     15  14  13     1.086974694385   148.24862590   180.00000000
 H     16  15  14     1.085906414725   121.65329344   180.00000000
 H     19  11   2     1.086976552848   119.21323184   180.00000000
 H     20  19  11     1.085919998428   121.64963726   180.00000085
 H     23  15  14     1.086976552848   119.21323184   180.00000000
 H     24  23  15     1.085919998428   121.64963726   180.00000085
 H     27  14  13     1.086979951006   129.93669052     0.00000000
 H     28  27 109     1.085912713978   121.65331223     0.00000000
 H     31  27  14     1.086979951006   119.20883655   180.00000085
 H     32  31  27     1.085912713978   121.65331223   180.00000000
 H     35   2   1     1.085452169371   120.95857827   180.00000000
 H     38   1   2     1.085452169371   120.95857827   180.00000000
 H     50   9   6     1.086976552848   105.61560056     0.00000000
 H     51  50 115     1.085919998428   121.64963726     0.00000000
 H     54  10   9     1.086976552848   105.61560056   180.00000000
 H     55  54 117     1.085919998428   121.64963726     0.00000000
 H     58  50   9     1.086974694385   119.20988993   180.00000000
 H     59  58  50     1.085906414725   121.65329344   180.00000000
 H     62  54  10     1.086974694385   119.20988993   180.00000000
 H     63  62  54     1.085906414725   121.65329344   180.00000000
 H     66   9   6     1.085452169371   120.95857827     0.00000000
 H     69  10   9     1.085452169371   120.95857827   180.00000000
 H     72  61  60     1.086979951006   129.93669052     0.00000000
 H     73  72 125     1.085912713978   121.65331223     0.00000000
 H     76  72  61     1.086979951006   119.20883655   180.00000085
 H     77  76  72     1.085912713978   121.65331223   180.00000000

---------------------------
INTERNAL COORDINATES (A.U.)
---------------------------
 C      0   0   0     0.000000000000     0.00000000     0.00000000
 C      1   0   0     2.669967598451     0.00000000     0.00000000
 C      1   2   0     2.887380896517   123.20776885     0.00000000
 C      3   1   2     2.926976129688   108.38659812   239.48233637
 C      3   1   2     2.926976129688   108.38659812   120.51766363
 C      2   1   3     2.887380896517   123.20776885     0.00000000
 C      6   2   1     2.926976129688   108.38659812   239.48233637
 C      6   2   1     2.926976129688   108.38659812   120.51766363
 C      6   2   1     2.887380896517   113.58446230     0.00000000
 C      9   6   2     2.669967598451   123.20776885     0.00000000
 C      2   1   3    17.664712655339   128.74156368   180.00000000
 C     11   2   1     2.630417287214    82.44899241     0.00000000
 C     12  11   2     2.633113959469   117.69672778     0.00000000
 C     13  12  11     2.754245908084   132.41782084   180.00000000
 C     14  13  12    17.651002285812   160.98966408   180.00000085
 C     15  14  13     2.630417287214    28.64968321   180.00000000
 C     16  15  14     2.633113959469   117.69672778     0.00000000
 C     17  16  15     2.754245908084   132.41782084   180.00000000
 C     11   2   1     2.656818884163    38.74217498   180.00000000
 C     19  11   2     2.630342893424   121.17605816     0.00000000
 C     20  19  11     2.633178570446   117.69921523     0.00000000
 C     21  20  19     2.754138822925   132.41687240   180.00000000
 C     15  14  13     2.656818884163    92.54148418     0.00000000
 C     23  15  14     2.630342893424   121.17605816     0.00000000
 C     24  23  15     2.633178570446   117.69921523     0.00000000
 C     25  24  23     2.754138822925   132.41687240   180.00000000
 C     14  13  12    10.998438493949   127.32393597     0.00000000
 C     27  14  13     2.630129471896    10.33415235     0.00000000
 C     28  27  14     2.633427353031   117.69595456     0.00000000
 C     29  28  27     2.753531461349   132.42421193   180.00000000
 C     27  14  13     2.657079666218   110.85447293   180.00000000
 C     31  27  14     2.630129471896   121.18862528     0.00000000
 C     32  31  27     2.633427353031   117.69595456     0.00000000
 C     33  32  31     2.753531461349   132.42421193   180.00000000
 C      2   1   3     2.654312060416   119.62235887   180.00000000
 C     35   2   1     2.615552882276   120.04000286     0.00000000
 C     36  35   2     2.755119209838   133.06307100   180.00000000
 C      1   2   3     2.654312060416   119.62235887   180.00000000
 C     38   1   2     2.615552882276   120.04000286     0.00000000
 C     39  38   1     2.755119209838   133.06307100   180.00000000
 N     22  21  20     2.585247533689   108.91653626   180.00000000
 N     26  25  24     2.585247533689   108.91653626   180.00000000
 N     30  29  28     2.586864572490   108.88970366   180.00000000
 N     37  36  35     2.588459962304   108.68570377   180.00000000
 N     14  13  12     2.505991409024   123.56418074     0.00000000
 N     18  17  16     2.505991409024   123.56418074     0.00000000
 N     37  36  35     2.505940875987   123.68907498     0.00000000
 N     40  39  38     2.505940875987   123.68907498     0.00000000
 Zn    43  30  29     3.746758116000   125.35007158   180.00000000
 C      9   6   2    15.680872096345   101.96401005   180.00000000
 C     50   9   6     2.630342893424    13.99510945   180.00000000
 C     51  50   9     2.633178570446   117.69921523   180.00000000
 C     52  51  50     2.754138822925   132.41687240   180.00000000
 C     10   9   6    15.680872096345   134.82822110   180.00000000
 C     54  10   9     2.630342893424    13.99510945     0.00000000
 C     55  54  10     2.633178570446   117.69921523   180.00000000
 C     56  55  54     2.754138822925   132.41687240   180.00000000
 C     50   9   6     2.656818884163   135.17116760   180.00000000
 C     58  50   9     2.630417287214   121.19116739     0.00000000
 C     59  58  50     2.633113959469   117.69672778     0.00000000
 C     60  59  58     2.754245908084   132.41782084   180.00000000
 C     54  10   9     2.656818884163   135.17116760     0.00000000
 C     62  54  10     2.630417287214   121.19116739     0.00000000
 C     63  62  54     2.633113959469   117.69672778     0.00000000
 C     64  63  62     2.754245908084   132.41782084   180.00000000
 C      9   6   2     2.654312060416   117.16987228   180.00000085
 C     66   9   6     2.615552882276   120.04000286   180.00000000
 C     67  66   9     2.755119209838   133.06307100   180.00000000
 C     10   9   6     2.654312060416   119.62235887   180.00000000
 C     69  10   9     2.615552882276   120.04000286     0.00000000
 C     70  69  10     2.755119209838   133.06307100   180.00000000
 C     61  60  59    10.998438493949   127.32393597     0.00000000
 C     72  61  60     2.630129471896    10.33415235     0.00000000
 C     73  72  61     2.633427353031   117.69595456     0.00000000
 C     74  73  72     2.753531461349   132.42421193   180.00000000
 C     72  61  60     2.657079666218   110.85447293   180.00000000
 C     76  72  61     2.630129471896   121.18862528     0.00000000
 C     77  76  72     2.633427353031   117.69595456     0.00000000
 C     78  77  76     2.753531461349   132.42421193   180.00000000
 N     53  52  51     2.585247533689   108.91653626   180.00000000
 N     57  56  55     2.585247533689   108.91653626   180.00000000
 N     68  67  66     2.588459962304   108.68570377   180.00000000
 N     75  74  73     2.586864572490   108.88970366   180.00000000
 N     68  67  66     2.505940875987   123.68907498     0.00000000
 N     71  70  69     2.505940875987   123.68907498     0.00000000
 N     61  60  59     2.505991409024   123.56418074     0.00000000
 N     65  64  63     2.505991409024   123.56418074     0.00000000
 Zn    83  75  74     3.746758116000   125.35007158   180.00000000
 H      4   3   1     2.068189331197   111.23203482   181.92136068
 H      4   3   1     2.068189331197   111.23203482   301.77513333
 H      4   3   1     2.069283370811   110.62229424    61.84824701
 H      5   3   1     2.068189331197   111.23203482   178.07863932
 H      5   3   1     2.069283370811   110.62229424   298.15175299
 H      5   3   1     2.068189331197   111.23203482    58.22486667
 H      7   6   2     2.068189331197   111.23203482   181.92136068
 H      7   6   2     2.068189331197   111.23203482   301.77513333
 H      7   6   2     2.069283370811   110.62229424    61.84824701
 H      8   6   2     2.068189331197   111.23203482   178.07863932
 H      8   6   2     2.069283370811   110.62229424   298.15175299
 H      8   6   2     2.068189331197   111.23203482    58.22486667
 H     11   2   1     2.054084486891   157.95206491   180.00000000
 H     12  11   2     2.052065730899   121.65329344   180.00000000
 H     15  14  13     2.054084486891   148.24862590   180.00000000
 H     16  15  14     2.052065730899   121.65329344   180.00000000
 H     19  11   2     2.054087998877   119.21323184   180.00000000
 H     20  19  11     2.052091400376   121.64963726   180.00000085
 H     23  15  14     2.054087998877   119.21323184   180.00000000
 H     24  23  15     2.052091400376   121.64963726   180.00000085
 H     27  14  13     2.054094420464   129.93669052     0.00000000
 H     28  27 109     2.052077634761   121.65331223     0.00000000
 H     31  27  14     2.054094420464   119.20883655   180.00000085
 H     32  31  27     2.052077634761   121.65331223   180.00000000
 H     35   2   1     2.051207331583   120.95857827   180.00000000
 H     38   1   2     2.051207331583   120.95857827   180.00000000
 H     50   9   6     2.054087998877   105.61560056     0.00000000
 H     51  50 115     2.052091400376   121.64963726     0.00000000
 H     54  10   9     2.054087998877   105.61560056   180.00000000
 H     55  54 117     2.052091400376   121.64963726     0.00000000
 H     58  50   9     2.054084486891   119.20988993   180.00000000
 H     59  58  50     2.052065730899   121.65329344   180.00000000
 H     62  54  10     2.054084486891   119.20988993   180.00000000
 H     63  62  54     2.052065730899   121.65329344   180.00000000
 H     66   9   6     2.051207331583   120.95857827     0.00000000
 H     69  10   9     2.051207331583   120.95857827   180.00000000
 H     72  61  60     2.054094420464   129.93669052     0.00000000
 H     73  72 125     2.052077634761   121.65331223     0.00000000
 H     76  72  61     2.054094420464   119.20883655   180.00000085
 H     77  76  72     2.052077634761   121.65331223   180.00000000

---------------------
BASIS SET INFORMATION
---------------------
There are 4 groups of distinct atoms

 Group   1 Type C   : 11s6p2d contracted to 5s3p2d pattern {62111/411/11}
 Group   2 Type N   : 11s6p2d contracted to 5s3p2d pattern {62111/411/11}
 Group   3 Type Zn  : 17s12p7d1f contracted to 6s5p4d1f pattern {842111/63111/4111/1}
 Group   4 Type H   : 5s1p contracted to 3s1p pattern {311/1}

Atom   0C    basis set group =>   1
Atom   1C    basis set group =>   1
Atom   2C    basis set group =>   1
Atom   3C    basis set group =>   1
Atom   4C    basis set group =>   1
Atom   5C    basis set group =>   1
Atom   6C    basis set group =>   1
Atom   7C    basis set group =>   1
Atom   8C    basis set group =>   1
Atom   9C    basis set group =>   1
Atom  10C    basis set group =>   1
Atom  11C    basis set group =>   1
Atom  12C    basis set group =>   1
Atom  13C    basis set group =>   1
Atom  14C    basis set group =>   1
Atom  15C    basis set group =>   1
Atom  16C    basis set group =>   1
Atom  17C    basis set group =>   1
Atom  18C    basis set group =>   1
Atom  19C    basis set group =>   1
Atom  20C    basis set group =>   1
Atom  21C    basis set group =>   1
Atom  22C    basis set group =>   1
Atom  23C    basis set group =>   1
Atom  24C    basis set group =>   1
Atom  25C    basis set group =>   1
Atom  26C    basis set group =>   1
Atom  27C    basis set group =>   1
Atom  28C    basis set group =>   1
Atom  29C    basis set group =>   1
Atom  30C    basis set group =>   1
Atom  31C    basis set group =>   1
Atom  32C    basis set group =>   1
Atom  33C    basis set group =>   1
Atom  34C    basis set group =>   1
Atom  35C    basis set group =>   1
Atom  36C    basis set group =>   1
Atom  37C    basis set group =>   1
Atom  38C    basis set group =>   1
Atom  39C    basis set group =>   1
Atom  40N    basis set group =>   2
Atom  41N    basis set group =>   2
Atom  42N    basis set group =>   2
Atom  43N    basis set group =>   2
Atom  44N    basis set group =>   2
Atom  45N    basis set group =>   2
Atom  46N    basis set group =>   2
Atom  47N    basis set group =>   2
Atom  48Zn   basis set group =>   3
Atom  49C    basis set group =>   1
Atom  50C    basis set group =>   1
Atom  51C    basis set group =>   1
Atom  52C    basis set group =>   1
Atom  53C    basis set group =>   1
Atom  54C    basis set group =>   1
Atom  55C    basis set group =>   1
Atom  56C    basis set group =>   1
Atom  57C    basis set group =>   1
Atom  58C    basis set group =>   1
Atom  59C    basis set group =>   1
Atom  60C    basis set group =>   1
Atom  61C    basis set group =>   1
Atom  62C    basis set group =>   1
Atom  63C    basis set group =>   1
Atom  64C    basis set group =>   1
Atom  65C    basis set group =>   1
Atom  66C    basis set group =>   1
Atom  67C    basis set group =>   1
Atom  68C    basis set group =>   1
Atom  69C    basis set group =>   1
Atom  70C    basis set group =>   1
Atom  71C    basis set group =>   1
Atom  72C    basis set group =>   1
Atom  73C    basis set group =>   1
Atom  74C    basis set group =>   1
Atom  75C    basis set group =>   1
Atom  76C    basis set group =>   1
Atom  77C    basis set group =>   1
Atom  78C    basis set group =>   1
Atom  79N    basis set group =>   2
Atom  80N    basis set group =>   2
Atom  81N    basis set group =>   2
Atom  82N    basis set group =>   2
Atom  83N    basis set group =>   2
Atom  84N    basis set group =>   2
Atom  85N    basis set group =>   2
Atom  86N    basis set group =>   2
Atom  87Zn   basis set group =>   3
Atom  88H    basis set group =>   4
Atom  89H    basis set group =>   4
Atom  90H    basis set group =>   4
Atom  91H    basis set group =>   4
Atom  92H    basis set group =>   4
Atom  93H    basis set group =>   4
Atom  94H    basis set group =>   4
Atom  95H    basis set group =>   4
Atom  96H    basis set group =>   4
Atom  97H    basis set group =>   4
Atom  98H    basis set group =>   4
Atom  99H    basis set group =>   4
Atom 100H    basis set group =>   4
Atom 101H    basis set group =>   4
Atom 102H    basis set group =>   4
Atom 103H    basis set group =>   4
Atom 104H    basis set group =>   4
Atom 105H    basis set group =>   4
Atom 106H    basis set group =>   4
Atom 107H    basis set group =>   4
Atom 108H    basis set group =>   4
Atom 109H    basis set group =>   4
Atom 110H    basis set group =>   4
Atom 111H    basis set group =>   4
Atom 112H    basis set group =>   4
Atom 113H    basis set group =>   4
Atom 114H    basis set group =>   4
Atom 115H    basis set group =>   4
Atom 116H    basis set group =>   4
Atom 117H    basis set group =>   4
Atom 118H    basis set group =>   4
Atom 119H    basis set group =>   4
Atom 120H    basis set group =>   4
Atom 121H    basis set group =>   4
Atom 122H    basis set group =>   4
Atom 123H    basis set group =>   4
Atom 124H    basis set group =>   4
Atom 125H    basis set group =>   4
Atom 126H    basis set group =>   4
Atom 127H    basis set group =>   4
---------------------------------
AUXILIARY/J BASIS SET INFORMATION
---------------------------------
There are 4 groups of distinct atoms

 Group   1 Type C   : 12s5p4d2f1g contracted to 6s4p3d1f1g pattern {711111/2111/211/2/1}
 Group   2 Type N   : 12s5p4d2f1g contracted to 6s4p3d1f1g pattern {711111/2111/211/2/1}
 Group   3 Type Zn  : 19s5p5d3f3g contracted to 8s5p5d2f3g pattern {121111111/11111/11111/21/111}
 Group   4 Type H   : 5s2p1d contracted to 3s1p1d pattern {311/2/1}

Atom   0C    basis set group =>   1
Atom   1C    basis set group =>   1
Atom   2C    basis set group =>   1
Atom   3C    basis set group =>   1
Atom   4C    basis set group =>   1
Atom   5C    basis set group =>   1
Atom   6C    basis set group =>   1
Atom   7C    basis set group =>   1
Atom   8C    basis set group =>   1
Atom   9C    basis set group =>   1
Atom  10C    basis set group =>   1
Atom  11C    basis set group =>   1
Atom  12C    basis set group =>   1
Atom  13C    basis set group =>   1
Atom  14C    basis set group =>   1
Atom  15C    basis set group =>   1
Atom  16C    basis set group =>   1
Atom  17C    basis set group =>   1
Atom  18C    basis set group =>   1
Atom  19C    basis set group =>   1
Atom  20C    basis set group =>   1
Atom  21C    basis set group =>   1
Atom  22C    basis set group =>   1
Atom  23C    basis set group =>   1
Atom  24C    basis set group =>   1
Atom  25C    basis set group =>   1
Atom  26C    basis set group =>   1
Atom  27C    basis set group =>   1
Atom  28C    basis set group =>   1
Atom  29C    basis set group =>   1
Atom  30C    basis set group =>   1
Atom  31C    basis set group =>   1
Atom  32C    basis set group =>   1
Atom  33C    basis set group =>   1
Atom  34C    basis set group =>   1
Atom  35C    basis set group =>   1
Atom  36C    basis set group =>   1
Atom  37C    basis set group =>   1
Atom  38C    basis set group =>   1
Atom  39C    basis set group =>   1
Atom  40N    basis set group =>   2
Atom  41N    basis set group =>   2
Atom  42N    basis set group =>   2
Atom  43N    basis set group =>   2
Atom  44N    basis set group =>   2
Atom  45N    basis set group =>   2
Atom  46N    basis set group =>   2
Atom  47N    basis set group =>   2
Atom  48Zn   basis set group =>   3
Atom  49C    basis set group =>   1
Atom  50C    basis set group =>   1
Atom  51C    basis set group =>   1
Atom  52C    basis set group =>   1
Atom  53C    basis set group =>   1
Atom  54C    basis set group =>   1
Atom  55C    basis set group =>   1
Atom  56C    basis set group =>   1
Atom  57C    basis set group =>   1
Atom  58C    basis set group =>   1
Atom  59C    basis set group =>   1
Atom  60C    basis set group =>   1
Atom  61C    basis set group =>   1
Atom  62C    basis set group =>   1
Atom  63C    basis set group =>   1
Atom  64C    basis set group =>   1
Atom  65C    basis set group =>   1
Atom  66C    basis set group =>   1
Atom  67C    basis set group =>   1
Atom  68C    basis set group =>   1
Atom  69C    basis set group =>   1
Atom  70C    basis set group =>   1
Atom  71C    basis set group =>   1
Atom  72C    basis set group =>   1
Atom  73C    basis set group =>   1
Atom  74C    basis set group =>   1
Atom  75C    basis set group =>   1
Atom  76C    basis set group =>   1
Atom  77C    basis set group =>   1
Atom  78C    basis set group =>   1
Atom  79N    basis set group =>   2
Atom  80N    basis set group =>   2
Atom  81N    basis set group =>   2
Atom  82N    basis set group =>   2
Atom  83N    basis set group =>   2
Atom  84N    basis set group =>   2
Atom  85N    basis set group =>   2
Atom  86N    basis set group =>   2
Atom  87Zn   basis set group =>   3
Atom  88H    basis set group =>   4
Atom  89H    basis set group =>   4
Atom  90H    basis set group =>   4
Atom  91H    basis set group =>   4
Atom  92H    basis set group =>   4
Atom  93H    basis set group =>   4
Atom  94H    basis set group =>   4
Atom  95H    basis set group =>   4
Atom  96H    basis set group =>   4
Atom  97H    basis set group =>   4
Atom  98H    basis set group =>   4
Atom  99H    basis set group =>   4
Atom 100H    basis set group =>   4
Atom 101H    basis set group =>   4
Atom 102H    basis set group =>   4
Atom 103H    basis set group =>   4
Atom 104H    basis set group =>   4
Atom 105H    basis set group =>   4
Atom 106H    basis set group =>   4
Atom 107H    basis set group =>   4
Atom 108H    basis set group =>   4
Atom 109H    basis set group =>   4
Atom 110H    basis set group =>   4
Atom 111H    basis set group =>   4
Atom 112H    basis set group =>   4
Atom 113H    basis set group =>   4
Atom 114H    basis set group =>   4
Atom 115H    basis set group =>   4
Atom 116H    basis set group =>   4
Atom 117H    basis set group =>   4
Atom 118H    basis set group =>   4
Atom 119H    basis set group =>   4
Atom 120H    basis set group =>   4
Atom 121H    basis set group =>   4
Atom 122H    basis set group =>   4
Atom 123H    basis set group =>   4
Atom 124H    basis set group =>   4
Atom 125H    basis set group =>   4
Atom 126H    basis set group =>   4
Atom 127H    basis set group =>   4

Checking for AutoStart:
The File: /media/sergey/13535849-ad93-4f10-b86f-8977b641d08c/makar/me4Zn/me4Zn.gbw exists
Trying to determine its content:
     ... Fine, the file contains calculation information
     ... Fine, the calculation information was read
     ... Fine, the file contains a basis set
     ... Fine, the basis set was read
     ... Fine, the file contains a geometry
     ... Fine, the geometry was read
     ... Fine, the file contains a set of orbitals
     ... Fine, the orbitals can be read
     => possible old guess file was deleted
     => GBW file was renamed to GES file
     => GES file is set as startup file
     => Guess is set to MORead
     ... now leaving AutoStart



           ************************************************************
           *        Program running with 5 parallel MPI-processes     *
           *              working on a common directory               *
           ************************************************************
------------------------------------------------------------------------------
                           ORCA GTO INTEGRAL CALCULATION
                           -- RI-GTO INTEGRALS CHOSEN --
------------------------------------------------------------------------------

                         BASIS SET STATISTICS AND STARTUP INFO

Gaussian basis set:
 # of primitive gaussian shells          ... 1948
 # of primitive gaussian functions       ... 3864
 # of contracted shells                  ... 1052
 # of contracted basis functions         ... 2400
 Highest angular momentum                ...    3
 Maximum contraction depth               ...    8
Auxiliary gaussian basis set:
 # of primitive gaussian shells          ... 2454
 # of primitive gaussian functions       ... 6874
 # of contracted shells                  ... 1536
 # of contracted aux-basis functions     ... 4832
 Highest angular momentum                ...    4
 Maximum contraction depth               ...   12
Ratio of auxiliary to basis functions    ...  2.01
Integral package used                  ... LIBINT
 One Electron integrals                  ... done
 Ordering auxiliary basis shells         ... done
 Integral threshhold             Thresh  ...  1.000e-10
 Primitive cut-off               TCut    ...  1.000e-11
 Pre-screening matrix                    ... done
 Shell pair data                         ... 
 Ordering of the shell pairs             ... done (   0.036 sec) 170572 of 553878 pairs
 Determination of significant pairs      ... done (   0.002 sec)
 Creation of shell pair data             ... done (   0.014 sec)
 Storage of shell pair data              ... done (   0.016 sec)
 Shell pair data done in (   0.069 sec)
 Computing two index integrals           ... done
 Cholesky decomposition of the V-matrix  ... done


Timings:
 Total evaluation time                   ...   5.917 sec (  0.099 min)
 One electron matrix time                ...   1.911 sec (  0.032 min) = 32.3%
 Schwartz matrix evaluation time         ...   2.079 sec (  0.035 min) = 35.1%
 Two index repulsion integral time       ...   0.366 sec (  0.006 min) =  6.2%
 Cholesky decomposition of V             ...   1.468 sec (  0.024 min) = 24.8%
 Three index repulsion integral time     ...   0.000 sec (  0.000 min) =  0.0%



           ************************************************************
           *        Program running with 5 parallel MPI-processes     *
           *              working on a common directory               *
           ************************************************************
-------------------------------------------------------------------------------
                                 ORCA SCF
-------------------------------------------------------------------------------

------------
SCF SETTINGS
------------
Hamiltonian:
 Density Functional     Method          .... DFT(GTOs)
 Exchange Functional    Exchange        .... WB88
 Correlation Functional Correlation     .... LYP
 Gradients option       PostSCFGGA      .... off
   Density functional embedding theory  .... OFF
 Long-range corrected/Screened/Range-Separated Hybrid DFT is turned on
   Amount of maximum screened exact exchange              ....  1.000000
   Range separation parameter mu (erf(mu*r12)/r12)        ....  0.400000
 RI-approximation to the Coulomb term is turned on
   Number of auxiliary basis functions  .... 4832
   RIJ-COSX (HFX calculated with COS-X)).... on


General Settings:
 Integral files         IntName         .... /media/sergey/13535849-ad93-4f10-b86f-8977b641d08c/makar/me4Zn/me4Zn
 Hartree-Fock type      HFTyp           .... RHF
 Total Charge           Charge          ....    0
 Multiplicity           Mult            ....    1
 Number of Electrons    NEL             ....  632
 Basis Dimension        Dim             .... 2400
 Nuclear Repulsion      ENuc            ....  15198.1681941945 Eh

Convergence Acceleration:
 DIIS                   CNVDIIS         .... on
   Start iteration      DIISMaxIt       ....    12
   Startup error        DIISStart       ....  0.200000
   # of expansion vecs  DIISMaxEq       ....     5
   Bias factor          DIISBfac        ....   1.050
   Max. coefficient     DIISMaxC        ....  10.000
 Newton-Raphson         CNVNR           .... off
 SOSCF                  CNVSOSCF        .... off
 Level Shifting         CNVShift        .... on
   Level shift para.    LevelShift      ....    0.2500
   Turn off err/grad.   ShiftErr        ....    0.0010
 Zerner damping         CNVZerner       .... off
 Static damping         CNVDamp         .... on
   Fraction old density DampFac         ....    0.7000
   Max. Damping (<1)    DampMax         ....    0.9800
   Min. Damping (>=0)   DampMin         ....    0.0000
   Turn off err/grad.   DampErr         ....    0.1000
 Fernandez-Rico         CNVRico         .... off

SCF Procedure:
 Maximum # iterations   MaxIter         ....   125
 SCF integral mode      SCFMode         .... Direct
   Integral package                     .... LIBINT
 Reset frequency        DirectResetFreq ....    20
 Integral Threshold     Thresh          ....  1.000e-10 Eh
 Primitive CutOff       TCut            ....  1.000e-11 Eh

Convergence Tolerance:
 Convergence Check Mode ConvCheckMode   .... Total+1el-Energy
 Convergence forced     ConvForced      .... 1
 Energy Change          TolE            ....  1.000e-06 Eh
 1-El. energy change                    ....  1.000e-03 Eh
 DIIS Error             TolErr          ....  1.000e-06


Diagonalization of the overlap matrix:
Smallest eigenvalue                        ... 8.996e-07
Time for diagonalization                   ...    1.635 sec
Threshold for overlap eigenvalues          ... 1.000e-08
Number of eigenvalues below threshold      ... 0
Time for construction of square roots      ...    0.927 sec
Total time needed                          ...    2.574 sec

---------------------
INITIAL GUESS: MOREAD
---------------------
Guess MOs are being read from file: /media/sergey/13535849-ad93-4f10-b86f-8977b641d08c/makar/me4Zn/me4Zn.ges
Input Geometry matches current geometry (good)
Input basis set matches current basis set (good)
MOs were renormalized
MOs were reorthogonalized (Cholesky)
                      ------------------
                      INITIAL GUESS DONE (   4.7 sec)
                      ------------------
-------------------
DFT GRID GENERATION
-------------------

General Integration Accuracy     IntAcc      ...  5.010
Radial Grid Type                 RadialGrid  ... Gauss-Chebyshev
Angular Grid (max. acc.)         AngularGrid ... Lebedev-434
Angular grid pruning method      GridPruning ... 3 (G Style)
Weight generation scheme         WeightScheme... Becke
Basis function cutoff            BFCut       ...    1.0000e-10
Integration weight cutoff        WCut        ...    1.0000e-14
Grids for H and He will be reduced by one unit

# of grid points (after initial pruning)     ... 1217952 (   0.2 sec)
# of grid points (after weights+screening)   ... 1025836 (  13.2 sec)
nearest neighbour list constructed           ...    0.0 sec
Grid point re-assignment to atoms done       ...    0.2 sec
Grid point division into batches done        ...    4.7 sec
Reduced shell lists constructed in    7.6 sec

Total number of grid points                  ...  1025836
Total number of batches                      ...    16094
Average number of points per batch           ...       63
Average number of grid points per atom       ...     8014
Average number of shells per batch           ...   163.52 (15.54%)
Average number of basis functions per batch  ...   372.60 (15.52%)
Average number of large shells per batch     ...    98.69 (60.35%)
Average number of large basis fcns per batch ...   229.44 (61.58%)
Maximum spatial batch extension              ...   8.22,  8.73, 19.58 au
Average spatial batch extension              ...   0.22,  0.22,  0.26 au

Time for grid setup =   22.233 sec

--------------------
COSX GRID GENERATION
--------------------

General Integration Accuracy     IntAcc      ...  3.670
Radial Grid Type                 RadialGrid  ... Gauss-Chebyshev
Angular Grid (max. acc.)         AngularGrid ... Lebedev-50
Angular grid pruning method      GridPruning ... 3 (G Style)
Weight generation scheme         WeightScheme... Becke
Basis function cutoff            BFCut       ...    1.0000e-10
Integration weight cutoff        WCut        ...    1.0000e-14
Grids for H and He will be reduced by one unit

# of grid points (after initial pruning)     ...  80616 (   0.0 sec)
# of grid points (after weights+screening)   ...  71108 (   0.9 sec)
nearest neighbour list constructed           ...    0.0 sec
Grid point re-assignment to atoms done       ...    0.0 sec
Grid point division into batches done        ...    0.0 sec
Reduced shell lists constructed in    0.4 sec

Total number of grid points                  ...    71108
Total number of batches                      ...     1171
Average number of points per batch           ...       60
Average number of grid points per atom       ...      556
Average number of shells per batch           ...   196.74 (18.70%)
Average number of basis functions per batch  ...   447.06 (18.63%)
Average number of large shells per batch     ...   116.01 (58.97%)
Average number of large basis fcns per batch ...   270.68 (60.55%)
Maximum spatial batch extension              ...   5.70,  5.70, 39.19 au
Average spatial batch extension              ...   0.44,  0.44,  1.12 au

Overlap Fitting                  UseSFitting ... on
Constructing numerical overlap ... done (      0.6 sec)
Inverting numerical overlap    ... done (      0.3 sec)
Obtaining analytic overlap     ... done (      0.0 sec)
Final contraction and storage  ... done (      0.5 sec)


General Integration Accuracy     IntAcc      ...  4.010
Radial Grid Type                 RadialGrid  ... Gauss-Chebyshev
Angular Grid (max. acc.)         AngularGrid ... Lebedev-50
Angular grid pruning method      GridPruning ... 3 (G Style)
Weight generation scheme         WeightScheme... Becke
Basis function cutoff            BFCut       ...    1.0000e-10
Integration weight cutoff        WCut        ...    1.0000e-14
Grids for H and He will be reduced by one unit

# of grid points (after initial pruning)     ...  97972 (   0.0 sec)
# of grid points (after weights+screening)   ...  86192 (   1.1 sec)
nearest neighbour list constructed           ...    0.0 sec
Grid point re-assignment to atoms done       ...    0.0 sec
Grid point division into batches done        ...    0.0 sec
Reduced shell lists constructed in    0.4 sec

Total number of grid points                  ...    86192
Total number of batches                      ...     1393
Average number of points per batch           ...       61
Average number of grid points per atom       ...      673
Average number of shells per batch           ...   195.23 (18.56%)
Average number of basis functions per batch  ...   443.77 (18.49%)
Average number of large shells per batch     ...   115.66 (59.24%)
Average number of large basis fcns per batch ...   269.99 (60.84%)
Maximum spatial batch extension              ...   5.52,  5.99, 33.32 au
Average spatial batch extension              ...   0.43,  0.45,  0.99 au

Overlap Fitting                  UseSFitting ... on
Constructing numerical overlap ... done (      0.7 sec)
Inverting numerical overlap    ... done (      0.3 sec)
Obtaining analytic overlap     ... done (      0.0 sec)
Final contraction and storage  ... done (      0.5 sec)

Time for X-Grid setup             =    5.964 sec
--------------
SCF ITERATIONS
--------------
ITER       Energy         Delta-E        Max-DP      RMS-DP      [F,P]     Damp
               ***  Starting incremental Fock matrix formation  ***
  0  -7117.5711003583   0.000000000000 0.00015178  0.00000020  0.0000240 0.7000
                 **** Energy Check signals convergence ****

               *****************************************************
               *                     SUCCESS                       *
               *           SCF CONVERGED AFTER   1 CYCLES          *
               *****************************************************


----------------
TOTAL SCF ENERGY
----------------

Total Energy       :        -7117.57110071 Eh         -193678.95610 eV

Components:
Nuclear Repulsion  :        15198.16819419 Eh          413563.18171 eV
Electronic Energy  :       -22315.73929491 Eh         -607242.13781 eV
One Electron Energy:       -40102.12629322 Eh        -1091234.33372 eV
Two Electron Energy:        17786.38699832 Eh          483992.19591 eV

Virial components:
Potential Energy   :       -14216.01188408 Eh         -386837.34980 eV
Kinetic Energy     :         7098.44078337 Eh          193158.39370 eV
Virial Ratio       :            2.00269500


DFT components:
N(Alpha)           :      316.000420512182 electrons
N(Beta)            :      316.000420512182 electrons
N(Total)           :      632.000841024365 electrons
E(XC)              :     -511.177366813839 Eh       
DFET-embed. en.    :        0.000000000000 Eh       

---------------
SCF CONVERGENCE
---------------

  Last Energy change         ...   -3.5406e-07  Tolerance :   1.0000e-06
  Last MAX-Density change    ...    1.8058e-04  Tolerance :   1.0000e-05
  Last RMS-Density change    ...    3.1514e-07  Tolerance :   1.0000e-06
  Last DIIS Error            ...    6.4157e-06  Tolerance :   1.0000e-06

             **** THE GBW FILE WAS UPDATED (/media/sergey/13535849-ad93-4f10-b86f-8977b641d08c/makar/me4Zn/me4Zn.gbw) ****
             **** DENSITY FILE WAS UPDATED (/media/sergey/13535849-ad93-4f10-b86f-8977b641d08c/makar/me4Zn/me4Zn.scfp) ****
             **** ENERGY FILE WAS UPDATED (/media/sergey/13535849-ad93-4f10-b86f-8977b641d08c/makar/me4Zn/me4Zn.en.tmp) ****
             **** THE GBW FILE WAS UPDATED (/media/sergey/13535849-ad93-4f10-b86f-8977b641d08c/makar/me4Zn/me4Zn.gbw) ****
             **** DENSITY FILE WAS UPDATED (/media/sergey/13535849-ad93-4f10-b86f-8977b641d08c/makar/me4Zn/me4Zn.scfp) ****
----------------
ORBITAL ENERGIES
----------------

  NO   OCC          E(Eh)            E(eV) 
   0   2.0000    -345.999905     -9415.1361 
   1   2.0000    -345.999904     -9415.1360 
   2   2.0000     -41.863570     -1139.1656 
   3   2.0000     -41.863569     -1139.1656 
   4   2.0000     -36.947441     -1005.3910 
   5   2.0000     -36.947441     -1005.3910 
   6   2.0000     -36.937303     -1005.1151 
   7   2.0000     -36.937302     -1005.1151 
   8   2.0000     -36.937287     -1005.1147 
   9   2.0000     -36.937287     -1005.1147 
  10   2.0000     -14.229103      -387.1936 
  11   2.0000     -14.229095      -387.1934 
  12   2.0000     -14.227888      -387.1605 
  13   2.0000     -14.227884      -387.1604 
  14   2.0000     -14.227872      -387.1601 
  15   2.0000     -14.227868      -387.1600 
  16   2.0000     -14.227238      -387.1428 
  17   2.0000     -14.227236      -387.1428 
  18   2.0000     -14.218844      -386.9144 
  19   2.0000     -14.218843      -386.9144 
  20   2.0000     -14.218840      -386.9143 
  21   2.0000     -14.218838      -386.9143 
  22   2.0000     -14.218459      -386.9039 
  23   2.0000     -14.218456      -386.9039 
  24   2.0000     -14.218453      -386.9038 
  25   2.0000     -14.218450      -386.9037 
  26   2.0000     -10.196819      -277.4696 
  27   2.0000     -10.196815      -277.4694 
  28   2.0000     -10.196756      -277.4678 
  29   2.0000     -10.196753      -277.4678 
  30   2.0000     -10.195265      -277.4273 
  31   2.0000     -10.195260      -277.4271 
  32   2.0000     -10.195259      -277.4271 
  33   2.0000     -10.195254      -277.4270 
  34   2.0000     -10.193132      -277.3692 
  35   2.0000     -10.193131      -277.3692 
  36   2.0000     -10.193126      -277.3691 
  37   2.0000     -10.193124      -277.3690 
  38   2.0000     -10.192080      -277.3406 
  39   2.0000     -10.192079      -277.3406 
  40   2.0000     -10.192014      -277.3388 
  41   2.0000     -10.192014      -277.3388 
  42   2.0000     -10.140611      -275.9400 
  43   2.0000     -10.140582      -275.9393 
  44   2.0000     -10.131218      -275.6845 
  45   2.0000     -10.131196      -275.6839 
  46   2.0000     -10.130870      -275.6750 
  47   2.0000     -10.130866      -275.6749 
  48   2.0000     -10.124877      -275.5119 
  49   2.0000     -10.124873      -275.5118 
  50   2.0000     -10.124873      -275.5118 
  51   2.0000     -10.124870      -275.5117 
  52   2.0000     -10.124532      -275.5025 
  53   2.0000     -10.124530      -275.5025 
  54   2.0000     -10.124530      -275.5025 
  55   2.0000     -10.124528      -275.5024 
  56   2.0000     -10.123589      -275.4769 
  57   2.0000     -10.123584      -275.4767 
  58   2.0000     -10.123583      -275.4767 
  59   2.0000     -10.123579      -275.4766 
  60   2.0000     -10.123301      -275.4690 
  61   2.0000     -10.123299      -275.4690 
  62   2.0000     -10.123106      -275.4637 
  63   2.0000     -10.123105      -275.4637 
  64   2.0000     -10.123100      -275.4635 
  65   2.0000     -10.123098      -275.4635 
  66   2.0000     -10.122958      -275.4597 
  67   2.0000     -10.122958      -275.4597 
  68   2.0000     -10.122957      -275.4597 
  69   2.0000     -10.122956      -275.4596 
  70   2.0000     -10.122617      -275.4504 
  71   2.0000     -10.122615      -275.4504 
  72   2.0000     -10.121756      -275.4270 
  73   2.0000     -10.121755      -275.4270 
  74   2.0000     -10.121725      -275.4262 
  75   2.0000     -10.121725      -275.4261 
  76   2.0000     -10.121691      -275.4252 
  77   2.0000     -10.121690      -275.4252 
  78   2.0000     -10.121690      -275.4252 
  79   2.0000     -10.121688      -275.4251 
  80   2.0000     -10.121533      -275.4209 
  81   2.0000     -10.121531      -275.4209 
  82   2.0000     -10.121506      -275.4202 
  83   2.0000     -10.121502      -275.4201 
  84   2.0000     -10.121286      -275.4142 
  85   2.0000     -10.121286      -275.4142 
  86   2.0000     -10.121285      -275.4142 
  87   2.0000     -10.121284      -275.4142 
  88   2.0000     -10.120118      -275.3824 
  89   2.0000     -10.120118      -275.3824 
  90   2.0000     -10.119729      -275.3718 
  91   2.0000     -10.119729      -275.3718 
  92   2.0000     -10.101199      -274.8676 
  93   2.0000     -10.101189      -274.8673 
  94   2.0000     -10.101184      -274.8672 
  95   2.0000     -10.101180      -274.8671 
  96   2.0000      -4.815518      -131.0369 
  97   2.0000      -4.815517      -131.0369 
  98   2.0000      -3.261565       -88.7517 
  99   2.0000      -3.261564       -88.7517 
 100   2.0000      -3.247083       -88.3576 
 101   2.0000      -3.247082       -88.3576 
 102   2.0000      -3.247072       -88.3573 
 103   2.0000      -3.247071       -88.3573 
 104   2.0000      -1.160091       -31.5677 
 105   2.0000      -1.160087       -31.5676 
 106   2.0000      -1.144904       -31.1544 
 107   2.0000      -1.144901       -31.1543 
 108   2.0000      -1.144848       -31.1529 
 109   2.0000      -1.144839       -31.1526 
 110   2.0000      -1.115926       -30.3659 
 111   2.0000      -1.115900       -30.3652 
 112   2.0000      -1.092925       -29.7400 
 113   2.0000      -1.092922       -29.7399 
 114   2.0000      -1.051170       -28.6038 
 115   2.0000      -1.050149       -28.5760 
 116   2.0000      -1.050143       -28.5758 
 117   2.0000      -1.050138       -28.5757 
 118   2.0000      -1.039429       -28.2843 
 119   2.0000      -1.018379       -27.7115 
 120   2.0000      -1.016973       -27.6732 
 121   2.0000      -1.006378       -27.3849 
 122   2.0000      -1.006377       -27.3849 
 123   2.0000      -1.006374       -27.3848 
 124   2.0000      -1.005487       -27.3607 
 125   2.0000      -1.005468       -27.3602 
 126   2.0000      -1.004393       -27.3309 
 127   2.0000      -1.004332       -27.3293 
 128   2.0000      -0.979159       -26.6443 
 129   2.0000      -0.964791       -26.2533 
 130   2.0000      -0.923358       -25.1259 
 131   2.0000      -0.921134       -25.0653 
 132   2.0000      -0.909561       -24.7504 
 133   2.0000      -0.908665       -24.7260 
 134   2.0000      -0.908426       -24.7195 
 135   2.0000      -0.906773       -24.6746 
 136   2.0000      -0.906555       -24.6686 
 137   2.0000      -0.905679       -24.6448 
 138   2.0000      -0.904940       -24.6247 
 139   2.0000      -0.902780       -24.5659 
 140   2.0000      -0.902098       -24.5473 
 141   2.0000      -0.901118       -24.5207 
 142   2.0000      -0.900995       -24.5173 
 143   2.0000      -0.900399       -24.5011 
 144   2.0000      -0.889144       -24.1948 
 145   2.0000      -0.878391       -23.9022 
 146   2.0000      -0.865109       -23.5408 
 147   2.0000      -0.858651       -23.3651 
 148   2.0000      -0.837259       -22.7830 
 149   2.0000      -0.836904       -22.7733 
[...]
   309a -> 319a  :     0.020696 
   311a -> 319a  :     0.179338 
   312a -> 318a  :     0.350174 
   313a -> 319a  :     0.159935 
   314a -> 317a  :     0.018892 
   315a -> 316a  :     0.018747 

STATE 29:  E=   0.164475 au      4.476 eV    36098.1 cm**-1
   305a -> 317a  :     0.015110 
   306a -> 316a  :     0.029582 
   307a -> 317a  :     0.021988 
   308a -> 319a  :     0.025231 
   309a -> 318a  :     0.018162 
   311a -> 318a  :     0.012755 
   314a -> 321a  :     0.169263 
   314a -> 323a  :     0.239730 
   315a -> 324a  :     0.241287 
   315a -> 325a  :     0.122383 

STATE 30:  E=   0.164523 au      4.477 eV    36108.7 cm**-1
   305a -> 316a  :     0.013799 
   306a -> 317a  :     0.029965 
   307a -> 316a  :     0.022126 
   308a -> 318a  :     0.023519 
   309a -> 319a  :     0.014616 
   314a -> 324a  :     0.238386 
   314a -> 325a  :     0.126164 
   315a -> 321a  :     0.172012 
   315a -> 323a  :     0.244658 
   315a -> 326a  :     0.012711 

STATE 31:  E=   0.165262 au      4.497 eV    36270.8 cm**-1
   289a -> 320a  :     0.011403 
   291a -> 322a  :     0.011142 
   294a -> 316a  :     0.189461 
   294a -> 317a  :     0.223181 
   295a -> 316a  :     0.245606 
   295a -> 317a  :     0.213227 

STATE 32:  E=   0.165269 au      4.497 eV    36272.3 cm**-1
   289a -> 322a  :     0.011203 
   291a -> 320a  :     0.011352 
   294a -> 316a  :     0.246870 
   294a -> 317a  :     0.212043 
   295a -> 316a  :     0.190516 
   295a -> 317a  :     0.222014 

STATE 33:  E=   0.166618 au      4.534 eV    36568.4 cm**-1
   288a -> 322a  :     0.012783 
   290a -> 320a  :     0.012502 
   294a -> 318a  :     0.174224 
   294a -> 319a  :     0.233001 
   295a -> 318a  :     0.258903 
   295a -> 319a  :     0.196146 

STATE 34:  E=   0.166623 au      4.534 eV    36569.6 cm**-1
   288a -> 320a  :     0.012407 
   290a -> 322a  :     0.012843 
   294a -> 318a  :     0.258289 
   294a -> 319a  :     0.194970 
   295a -> 318a  :     0.175364 
   295a -> 319a  :     0.233595 

STATE 35:  E=   0.170189 au      4.631 eV    37352.3 cm**-1
   296a -> 316a  :     0.010082 
   298a -> 322a  :     0.015774 
   299a -> 320a  :     0.013887 
   302a -> 316a  :     0.055662 
   303a -> 317a  :     0.047971 
   304a -> 319a  :     0.125203 
   304a -> 322a  :     0.017933 
   305a -> 318a  :     0.103433 
   305a -> 320a  :     0.020335 
   306a -> 319a  :     0.034042 
   307a -> 318a  :     0.078927 
   308a -> 316a  :     0.023754 
   309a -> 317a  :     0.012129 
   310a -> 321a  :     0.052347 
   312a -> 316a  :     0.022817 
   312a -> 321a  :     0.023131 
   313a -> 317a  :     0.066557 
   313a -> 325a  :     0.029262 
   313a -> 329a  :     0.040871 
   314a -> 322a  :     0.019019 
   315a -> 320a  :     0.016160 

STATE 36:  E=   0.170240 au      4.632 eV    37363.4 cm**-1
   298a -> 320a  :     0.017821 
   299a -> 322a  :     0.014307 
   302a -> 317a  :     0.057462 
   303a -> 316a  :     0.052275 
   304a -> 318a  :     0.140775 
   304a -> 320a  :     0.019836 
   305a -> 319a  :     0.099308 
   305a -> 322a  :     0.018838 
   306a -> 318a  :     0.031044 
   307a -> 319a  :     0.064923 
   308a -> 317a  :     0.018010 
   309a -> 316a  :     0.012760 
   310a -> 325a  :     0.013930 
   310a -> 329a  :     0.019279 
   312a -> 317a  :     0.033216 
   313a -> 316a  :     0.080180 
   313a -> 321a  :     0.085260 
   314a -> 320a  :     0.018916 
   315a -> 322a  :     0.021434 

STATE 37:  E=   0.173872 au      4.731 eV    38160.5 cm**-1
   296a -> 316a  :     0.028182 
   297a -> 317a  :     0.031710 
   298a -> 319a  :     0.048103 
   298a -> 322a  :     0.024576 
   299a -> 318a  :     0.050087 
   299a -> 320a  :     0.025574 
   302a -> 316a  :     0.130149 
   303a -> 317a  :     0.131944 
   304a -> 319a  :     0.010314 
   305a -> 318a  :     0.013261 
   306a -> 319a  :     0.024367 
   306a -> 328a  :     0.016873 
   307a -> 318a  :     0.019800 
   307a -> 327a  :     0.012579 
   308a -> 316a  :     0.016729 
   308a -> 326a  :     0.014176 
   309a -> 325a  :     0.013107 
   312a -> 316a  :     0.017128 
   313a -> 317a  :     0.033903 
   314a -> 322a  :     0.026065 
   314a -> 328a  :     0.036755 
   315a -> 320a  :     0.024073 
   315a -> 327a  :     0.039730 

STATE 38:  E=   0.173998 au      4.735 eV    38188.2 cm**-1
   296a -> 317a  :     0.020828 
   297a -> 316a  :     0.025935 
   298a -> 318a  :     0.049782 
   298a -> 320a  :     0.023469 
   299a -> 319a  :     0.051222 
   299a -> 322a  :     0.024323 
   302a -> 317a  :     0.126761 
   303a -> 316a  :     0.126747 
   306a -> 318a  :     0.023805 
   306a -> 327a  :     0.014784 
   307a -> 319a  :     0.019771 
   307a -> 328a  :     0.010978 
   308a -> 317a  :     0.013773 
   308a -> 325a  :     0.016553 
   309a -> 326a  :     0.015735 
   312a -> 317a  :     0.025115 
   313a -> 316a  :     0.036950 
   314a -> 320a  :     0.026223 
   314a -> 327a  :     0.054413 
   315a -> 322a  :     0.030085 
   315a -> 328a  :     0.052076 

STATE 39:  E=   0.174543 au      4.750 eV    38307.8 cm**-1
   292a -> 316a  :     0.018337 
   293a -> 317a  :     0.019611 
   296a -> 319a  :     0.019256 
   297a -> 318a  :     0.018481 
   298a -> 316a  :     0.051601 
   299a -> 317a  :     0.046985 
   302a -> 322a  :     0.019034 
   303a -> 320a  :     0.017887 
   305a -> 317a  :     0.010288 
   306a -> 323a  :     0.014793 
   307a -> 324a  :     0.010424 
   311a -> 318a  :     0.015527 
   312a -> 319a  :     0.030939 
   313a -> 318a  :     0.022011 
   314a -> 321a  :     0.052362 
   314a -> 326a  :     0.247767 
   315a -> 325a  :     0.029155 
   315a -> 329a  :     0.210782 

STATE 40:  E=   0.174701 au      4.754 eV    38342.5 cm**-1
   292a -> 317a  :     0.018028 
   293a -> 316a  :     0.018721 
   296a -> 318a  :     0.018060 
   297a -> 319a  :     0.016653 
   298a -> 317a  :     0.049346 
   299a -> 316a  :     0.045958 
   302a -> 320a  :     0.018265 
   303a -> 322a  :     0.017767 
   305a -> 316a  :     0.010881 
   306a -> 324a  :     0.014146 
   307a -> 323a  :     0.010102 
   311a -> 319a  :     0.015201 
   312a -> 318a  :     0.037092 
   313a -> 319a  :     0.027167 
   314a -> 325a  :     0.027344 
   314a -> 329a  :     0.208894 
   315a -> 321a  :     0.054972 
   315a -> 326a  :     0.249342 


-------------------------
TD-DFT-EXCITATION SPECTRA
-------------------------

Center of mass = (  0.0000,  0.0000,  0.0000)
Calculating the Dipole integrals                  ... done
Transforming integrals                            ... done
Calculating the Linear Momentum integrals         ... done
Transforming integrals                            ... done
Calculating angular momentum integrals            ... done
Transforming integrals                            ... done

-----------------------------------------------------------------------------
         ABSORPTION SPECTRUM VIA TRANSITION ELECTRIC DIPOLE MOMENTS
-----------------------------------------------------------------------------
State   Energy    Wavelength  fosc         T2        TX        TY        TZ  
        (cm-1)      (nm)                 (au**2)    (au)      (au)      (au) 
-----------------------------------------------------------------------------
   1   14175.6    705.4   1.333910089  30.97846   5.56583  -0.00020   0.00003
   2   14310.8    698.8   0.000000227   0.00001   0.00059  -0.00221  -0.00001
   3   14438.5    692.6   0.912043304  20.79553   0.00022   4.56021  -0.00001
   4   14905.0    670.9   0.000000007   0.00000  -0.00037  -0.00015   0.00002
   5   30854.8    324.1   0.000000015   0.00000   0.00021  -0.00001  -0.00034
   6   30855.2    324.1   0.000000295   0.00000  -0.00017   0.00000   0.00176
   7   31217.9    320.3   0.000000002   0.00000  -0.00003  -0.00014   0.00001
   8   31218.7    320.3   0.000000001   0.00000   0.00001  -0.00012   0.00001
   9   31538.9    317.1   0.014282834   0.14909   0.38612   0.00001   0.00000
  10   31555.3    316.9   0.000003454   0.00004   0.00600  -0.00003  -0.00000
  11   31656.5    315.9   0.000100036   0.00104   0.00004  -0.03225   0.00001
  12   31657.4    315.9   0.000009154   0.00010  -0.00004  -0.00976  -0.00000
  13   32839.1    304.5   0.136237874   1.36578  -1.16867   0.00001  -0.00001
  14   33074.3    302.3   0.000000006   0.00000   0.00020  -0.00016   0.00000
  15   33097.8    302.1   0.000000007   0.00000   0.00026   0.00000   0.00001
  16   33274.7    300.5   0.000779433   0.00771  -0.00008   0.08782   0.00001
  17   33572.8    297.9   0.000000014   0.00000  -0.00017   0.00033   0.00000
  18   33582.1    297.8   0.000311089   0.00305  -0.00015  -0.05522  -0.00000
  19   34084.9    293.4   1.003334330   9.69080   3.11300   0.00003   0.00001
  20   34249.5    292.0   0.000000301   0.00000   0.00170  -0.00011   0.00001
  21   34363.3    291.0   0.000000373   0.00000   0.00004   0.00189  -0.00001
  22   34390.5    290.8   0.121554610   1.16361   0.00003  -1.07871   0.00001
  23   35022.6    285.5   0.000000162   0.00000   0.00123  -0.00002   0.00003
  24   35038.3    285.4   0.000824847   0.00775   0.00015  -0.08803  -0.00004
  25   35091.2    285.0   2.035579172  19.09702  -4.37001   0.00007  -0.00001
  26   35560.9    281.2   0.000008345   0.00008   0.00012   0.00879   0.00000
  27   35639.2    280.6   0.000000890   0.00001   0.00278   0.00071  -0.00002
  28   35739.4    279.8   1.981467478  18.25220   0.00008   4.27226  -0.00000
  29   36098.1    277.0   0.000000731   0.00001  -0.00018   0.00258   0.00001
  30   36108.7    276.9   0.008990338   0.08197  -0.00002   0.28630  -0.00003
  31   36270.8    275.7   0.000000039   0.00000  -0.00021  -0.00056  -0.00001
  32   36272.3    275.7   0.000000013   0.00000   0.00010  -0.00033   0.00001
  33   36568.4    273.5   0.000022108   0.00020  -0.00021  -0.00054  -0.01410
  34   36569.6    273.5   0.000016314   0.00015  -0.00035   0.00003  -0.01211
  35   37352.3    267.7   0.091379258   0.80539  -0.89744   0.00009   0.00003
  36   37363.4    267.6   0.000012363   0.00011   0.01044  -0.00005   0.00006
  37   38160.5    262.1   0.034019096   0.29348   0.54174  -0.00001  -0.00001
  38   38188.2    261.9   0.000000133   0.00000   0.00107   0.00003  -0.00005
  39   38307.8    261.0   0.000000051   0.00000   0.00010  -0.00065  -0.00000
  40   38342.5    260.8   0.011954568   0.10264   0.00009  -0.32038   0.00000

-----------------------------------------------------------------------------
         ABSORPTION SPECTRUM VIA TRANSITION VELOCITY DIPOLE MOMENTS
-----------------------------------------------------------------------------
State   Energy    Wavelength   fosc        P2         PX        PY        PZ  
        (cm-1)      (nm)                 (au**2)     (au)      (au)      (au) 
-----------------------------------------------------------------------------
   1   14175.6    705.4   1.340061572   0.12983  -0.36032   0.00001  -0.00000
   2   14310.8    698.8   0.000000236   0.00000  -0.00004   0.00015  -0.00000
   3   14438.5    692.6   0.918372299   0.09062  -0.00002  -0.30104  -0.00000
   4   14905.0    670.9   0.000000006   0.00000   0.00002   0.00001   0.00001
   5   30854.8    324.1   0.000000037   0.00000  -0.00003   0.00000   0.00008
   6   30855.2    324.1   0.000000703   0.00000   0.00002  -0.00000  -0.00038
   7   31217.9    320.3   0.000000003   0.00000   0.00001   0.00002   0.00001
   8   31218.7    320.3   0.000000002   0.00000   0.00000   0.00002   0.00000
   9   31538.9    317.1   0.014149186   0.00305  -0.05523  -0.00000   0.00000
  10   31555.3    316.9   0.000003477   0.00000  -0.00087   0.00001  -0.00000
  11   31656.5    315.9   0.000099372   0.00002  -0.00001   0.00464   0.00000
  12   31657.4    315.9   0.000009081   0.00000   0.00000   0.00140   0.00000
  13   32839.1    304.5   0.134556212   0.03020   0.17378  -0.00000   0.00001
  14   33074.3    302.3   0.000000006   0.00000  -0.00003   0.00002   0.00000
  15   33097.8    302.1   0.000000005   0.00000  -0.00003  -0.00000   0.00000
  16   33274.7    300.5   0.000726494   0.00017   0.00001  -0.01285  -0.00000
  17   33572.8    297.9   0.000000010   0.00000   0.00003  -0.00004  -0.00000
  18   33582.1    297.8   0.000278349   0.00006   0.00003   0.00799   0.00000
  19   34084.9    293.4   0.989207122   0.23044  -0.48004  -0.00000   0.00000
  20   34249.5    292.0   0.000000288   0.00000  -0.00026   0.00002  -0.00000
  21   34363.3    291.0   0.000000381   0.00000  -0.00001  -0.00030  -0.00001
  22   34390.5    290.8   0.118800601   0.02792  -0.00000   0.16710   0.00000
  23   35022.6    285.5   0.000000164   0.00000  -0.00020   0.00000   0.00000
  24   35038.3    285.4   0.000734529   0.00018  -0.00002   0.01326  -0.00000
  25   35091.2    285.0   2.022587565   0.48508   0.69648  -0.00001   0.00001
  26   35560.9    281.2   0.000008347   0.00000  -0.00002  -0.00142   0.00000
  27   35639.2    280.6   0.000000878   0.00000  -0.00045  -0.00012   0.00001
  28   35739.4    279.8   1.966270134   0.48028  -0.00001  -0.69302   0.00001
  29   36098.1    277.0   0.000000758   0.00000   0.00003  -0.00043   0.00000
  30   36108.7    276.9   0.009148272   0.00226   0.00000  -0.04751   0.00000
  31   36270.8    275.7   0.000000037   0.00000   0.00003   0.00009   0.00000
  32   36272.3    275.7   0.000000013   0.00000  -0.00002   0.00005  -0.00000
  33   36568.4    273.5   0.000022977   0.00001   0.00004   0.00009   0.00239
  34   36569.6    273.5   0.000016655   0.00000   0.00005  -0.00000   0.00204
  35   37352.3    267.7   0.091529122   0.02337   0.15286  -0.00001  -0.00001
  36   37363.4    267.6   0.000012313   0.00000  -0.00177   0.00001  -0.00001
  37   38160.5    262.1   0.034951726   0.00912  -0.09548   0.00000   0.00001
  38   38188.2    261.9   0.000000142   0.00000  -0.00019   0.00000   0.00000
  39   38307.8    261.0   0.000000053   0.00000  -0.00001   0.00012   0.00000
  40   38342.5    260.8   0.012678836   0.00332  -0.00001   0.05764  -0.00001

-------------------------------------------------------------------
                             CD SPECTRUM
-------------------------------------------------------------------
State  Energy     Wavelength     R         MX        MY        MZ   
       (cm-1)       (nm)     (1e40*cgs)   (au)      (au)      (au)  
-------------------------------------------------------------------
   1   14175.6    705.4     -0.04954  -0.00002   0.00006   0.00023
   2   14310.8    698.8      0.00957  -0.00000   0.00001  -2.47499
   3   14438.5    692.6      0.01783   0.00010   0.00001  -0.00116
   4   14905.0    670.9     -0.00000   0.00003   0.00000   0.00006
   5   30854.8    324.1      0.00065  -0.00002  -0.27752   0.00003
   6   30855.2    324.1     -0.00004   0.00002  -0.05762  -0.00002
   7   31217.9    320.3     -0.00439   0.28010  -0.00006   0.00024
   8   31218.7    320.3     -0.00012  -0.04577  -0.00004   0.00006
   9   31538.9    317.1     -0.00213  -0.00001   0.00001  -0.00004
  10   31555.3    316.9     -0.00008  -0.00003   0.00001  -0.00001
  11   31656.5    315.9      0.00020   0.00000  -0.00001   0.00862
  12   31657.4    315.9     -0.00004   0.00002   0.00001  -0.02837
  13   32839.1    304.5     -0.01179   0.00002   0.00009   0.00021
  14   33074.3    302.3      0.00003   0.00001  -0.00003   1.04695
  15   33097.8    302.1      0.00001  -0.00002   0.00012   0.00213
  16   33274.7    300.5      0.00135   0.00003   0.00003   0.00019
  17   33572.8    297.9      0.00058   0.00006   0.00003   0.95080
  18   33582.1    297.8      0.00096   0.00003  -0.00004   0.00521
  19   34084.9    293.4     -0.00739  -0.00001   0.00004  -0.00006
  20   34249.5    292.0     -0.00001  -0.00001   0.00001   0.00008
  21   34363.3    291.0      0.00343  -0.00001   0.00007  -0.90352
  22   34390.5    290.8      0.02561  -0.00001  -0.00005  -0.00033
  23   35022.6    285.5     -0.00138   0.00000   0.00001  -0.10541
  24   35038.3    285.4     -0.00046  -0.00002   0.00001   0.00070
  25   35091.2    285.0     -0.07107   0.00003  -0.00002  -0.00037
  26   35560.9    281.2     -0.00193   0.00005  -0.00007  -5.40684
  27   35639.2    280.6     -0.00002  -0.00001   0.00000   0.00078
  28   35739.4    279.8      0.01405   0.00008   0.00001   0.01146
  29   36098.1    277.0      0.00257  -0.00038   0.00005   0.55653
  30   36108.7    276.9      0.00043  -0.00005   0.00000  -0.00510
  31   36270.8    275.7      0.03080  -0.31150   0.00007  -0.00044
  32   36272.3    275.7      0.01638   0.33608   0.00000   0.00040
  33   36568.4    273.5     -0.07571   0.00004   0.31539  -0.00062
  34   36569.6    273.5     -0.00537  -0.00003  -0.36304   0.00011
  35   37352.3    267.7      0.00168  -0.00000  -0.00001   0.00001
  36   37363.4    267.6      0.00012   0.00002   0.00003  -0.00006
  37   38160.5    262.1     -0.00062  -0.00000   0.00004  -0.00001
  38   38188.2    261.9      0.00001   0.00002   0.00006   0.00002
  39   38307.8    261.0      0.00053   0.00000   0.00000  -0.65480
  40   38342.5    260.8      0.00185   0.00003  -0.00001   0.00129

Total run time:    39723.954 sec

           *** ORCA-CIS/TD-DFT FINISHED WITHOUT ERROR ***

-----------------------
CIS/TD-DFT TOTAL ENERGY
-----------------------

    E(SCF)  =  -7117.571100712 Eh
    DE(CIS) =      0.064588924 Eh (Root  1)
    ----------------------------- ---------
    E(tot)  =  -7117.506511789 Eh


-------------------------   --------------------
FINAL SINGLE POINT ENERGY     -7117.506511788660
-------------------------   --------------------


                            ***************************************
                            *     ORCA property calculations      *
                            ***************************************

                                    ---------------------
                                    Active property flags
                                    ---------------------
   (+) Dipole Moment


------------------------------------------------------------------------------
                       ORCA ELECTRIC PROPERTIES CALCULATION
------------------------------------------------------------------------------

Dipole Moment Calculation                       ... on
Quadrupole Moment Calculation                   ... off
Polarizability Calculation                      ... off
GBWName                                         ... /media/sergey/13535849-ad93-4f10-b86f-8977b641d08c/makar/me4Zn/me4Zn.gbw
Electron density file                           ... /media/sergey/13535849-ad93-4f10-b86f-8977b641d08c/makar/me4Zn/me4Zn.scfp
The origin for moment calculation is the CENTER OF MASS  = (-0.000000,  0.000000  0.000000)

-------------
DIPOLE MOMENT
-------------
                                X             Y             Z
Electronic contribution:     -0.00013       0.00002       0.00013
Nuclear contribution   :      0.00000       0.00000       0.00000
                        -----------------------------------------
Total Dipole Moment    :     -0.00013       0.00002       0.00013
                        -----------------------------------------
Magnitude (a.u.)       :      0.00019
Magnitude (Debye)      :      0.00048



--------------------
Rotational spectrum 
--------------------
 
Rotational constants in cm-1:     0.001422     0.000203     0.000178 
Rotational constants in MHz :    42.619248     6.091908     5.342392 

 Dipole components along the rotational axes: 
x,y,z [a.u.] :     0.000134    -0.000018     0.000131 
x,y,z [Debye]:     0.000340    -0.000045     0.000333 

 

Timings for individual modules:

Sum of individual times         ...    40024.288 sec (= 667.071 min)
GTO integral calculation        ...        8.800 sec (=   0.147 min)   0.0 %
SCF iterations                  ...      288.726 sec (=   4.812 min)   0.7 %
CIS module                      ...    39726.762 sec (= 662.113 min)  99.3 %
                             ****ORCA TERMINATED NORMALLY****
TOTAL RUN TIME: 0 days 11 hours 7 minutes 9 seconds 305 msec
