
                                 *****************
                                 * O   R   C   A *
                                 *****************

           --- An Ab Initio, DFT and Semiempirical electronic structure package ---

                  #######################################################
                  #                        -***-                        #
                  #          Department of theory and spectroscopy      #
                  #               Directorship: Frank Neese             #
                  #        Max Planck Institute fuer Kohlenforschung    #
                  #                Kaiser Wilhelm Platz 1               #
                  #                 D-45470 Muelheim/Ruhr               #
                  #                      Germany                        #
                  #                                                     #
                  #                  All rights reserved                #
                  #                        -***-                        #
                  #######################################################


                         Program Version 4.2.1 -  RELEASE  -


 With contributions from (in alphabetic order):
   Daniel Aravena         : Magnetic Suceptibility
   Michael Atanasov       : Ab Initio Ligand Field Theory (pilot matlab implementation)
   Alexander A. Auer      : GIAO ZORA, VPT2
   Ute Becker             : Parallelization
   Giovanni Bistoni       : ED, misc. LED, open-shell LED, HFLD
   Martin Brehm           : Molecular dynamics
   Dmytro Bykov           : SCF Hessian
   Vijay G. Chilkuri      : MRCI spin determinant printing, contributions to CSF-ICE
   Dipayan Datta          : RHF DLPNO-CCSD density
   Achintya Kumar Dutta   : EOM-CC, STEOM-CC
   Dmitry Ganyushin       : Spin-Orbit,Spin-Spin,Magnetic field MRCI
   Miquel Garcia          : C-PCM Hessian, Gaussian charge scheme
   Yang Guo               : DLPNO-NEVPT2, CIM, IAO-localization
   Andreas Hansen         : Spin unrestricted coupled pair/coupled cluster methods
   Benjamin Helmich-Paris : CASSCF linear response (MC-RPA)
   Lee Huntington         : MR-EOM, pCC
   Robert Izsak           : Overlap fitted RIJCOSX, COSX-SCS-MP3, EOM
   Christian Kollmar      : KDIIS, OOCD, Brueckner-CCSD(T), CCSD density
   Simone Kossmann        : Meta GGA functionals, TD-DFT gradient, OOMP2, MP2 Hessian
   Martin Krupicka        : AUTO-CI
   Lucas Lang             : DCDCAS
   Dagmar Lenk            : GEPOL surface, SMD
   Dimitrios Liakos       : Extrapolation schemes; Compound Job, initial MDCI parallelization
   Dimitrios Manganas     : Further ROCIS development; embedding schemes
   Dimitrios Pantazis     : SARC Basis sets
   Taras Petrenko         : DFT Hessian,TD-DFT gradient, ASA, ECA, R-Raman, ABS, FL, XAS/XES, NRVS
   Peter Pinski           : DLPNO-MP2, DLPNO-MP2 Gradient
   Christoph Reimann      : Effective Core Potentials
   Marius Retegan         : Local ZFS, SOC
   Christoph Riplinger    : Optimizer, TS searches, QM/MM, DLPNO-CCSD(T), (RO)-DLPNO pert. Triples
   Tobias Risthaus        : Range-separated hybrids, TD-DFT gradient, RPA, STAB
   Michael Roemelt        : Original ROCIS implementation
   Masaaki Saitow         : Open-shell DLPNO-CCSD energy and density
   Barbara Sandhoefer     : DKH picture change effects
   Avijit Sen             : IP-ROCIS
   Kantharuban Sivalingam : CASSCF convergence, NEVPT2, FIC-MRCI
   Bernardo de Souza      : ESD, SOC TD-DFT
   Georgi Stoychev        : AutoAux, RI-MP2 NMR
   Willem Van den Heuvel  : Paramagnetic NMR
   Boris Wezisla          : Elementary symmetry handling
   Frank Wennmohs         : Technical directorship


 We gratefully acknowledge several colleagues who have allowed us to
 interface, adapt or use parts of their codes:
   Stefan Grimme, W. Hujo, H. Kruse,             : VdW corrections, initial TS optimization,
                  C. Bannwarth                     DFT functionals, gCP, sTDA/sTD-DF
   Ed Valeev, F. Pavosevic, A. Kumar             : LibInt (2-el integral package), F12 methods
   Garnet Chan, S. Sharma, J. Yang, R. Olivares  : DMRG
   Ulf Ekstrom                                   : XCFun DFT Library
   Mihaly Kallay                                 : mrcc  (arbitrary order and MRCC methods)
   Andreas Klamt, Michael Diedenhofen            : otool_cosmo (COSMO solvation model)
   Jiri Pittner, Ondrej Demel                    : Mk-CCSD
   Frank Weinhold                                : gennbo (NPA and NBO analysis)
   Christopher J. Cramer and Donald G. Truhlar   : smd solvation model
   Lars Goerigk                                  : TD-DFT with DH, B97 family of functionals
   V. Asgeirsson, H. Jonsson                     : NEB implementation
   FAccTs GmbH                                   : IRC, NEB, NEB-TS, Multilevel, MM, QM/MM, CI optimization
   S Lehtola, MJT Oliveira, MAL Marques          : LibXC Library


 Your calculation uses the libint2 library for the computation of 2-el integrals
 For citations please refer to: http://libint.valeyev.net

 Your ORCA version has been built with support for libXC version: 4.2.3
 For citations please refer to: https://tddft.org/programs/libxc/

 This ORCA versions uses:
   CBLAS   interface :  Fast vector & matrix operations
   LAPACKE interface :  Fast linear algebra routines
   SCALAPACK package :  Parallel linear algebra routines


XCFun DFT library Copyright 2009-2010 Ulf Ekstrom and contributors.
See http://admol.org/xcfun for more information. This is free soft-
ware; see the source code for copying conditions. There is ABSOLUTELY
NO WARRANTY; not even for MERCHANTABILITY or FITNESS FOR A PARTICULAR
PURPOSE. For details see the documentation. Scientific users of this 
library should cite U. Ekstrom, L. Visscher, R. Bast, A. J. Thorvald-
sen and K. Ruud; J.Chem.Theor.Comp. 2010, DOI: 10.1021/ct100117s
XCFun Version 0.99 
----- Orbital basis set information -----
Your calculation utilizes the basis: def2-TZVP(-f)
   F. Weigend and R. Ahlrichs, Phys. Chem. Chem. Phys. 7, 3297 (2005).

----- AuxJ basis set information -----
Your calculation utilizes the auxiliary basis: def2/J
   F. Weigend, Phys. Chem. Chem. Phys. 8, 1057 (2006).

================================================================================
                                        WARNINGS
                       Please study these warnings very carefully!
================================================================================

INFO   : Checking CIS options ...

INFO   : Since TDDFT/CIS Mode == RPA_AOINTS, the TAMMDANCOFF/TDA keyword is ignored. 


WARNING: CIS/ROCIS methods need fully converged wavefunctions
  ===> : Setting SCFConvForced true
         You can overwrite this default with %scf ConvForced false 


INFO   : the flag for use of LIBINT has been found!

================================================================================
                                       INPUT FILE
================================================================================
NAME = /media/sergey/DATA1/makar/orca/ZnPc-phane/ZnPc-phane.inp
|  1> ! def2-tzvp(-f) def2/j lc-blyp pal8 rijcosx grid5 nofinalgrid gridx5 nofinalgridx
|  2> 
|  3> %maxcore 10000
|  4> 
|  5> %method
|  6> rangesepmu 0.4
|  7> end
|  8> 
|  9> %tddft
| 10> tda false
| 11> nroots 40
| 12> end
| 13> 
| 14> * xyz 0 1
| 15>  C                 -0.43707400    4.80767900    6.55281300
| 16>  C                 -0.16120400    6.18612300    6.55179800
| 17>  C                 -0.59698600    4.10354900    5.36272800
| 18>  C                 -0.47423700    4.81107600    4.16844800
| 19>  C                 -0.19998900    6.19107400    4.16853800
| 20>  C                 -0.03940200    6.89499400    5.36025100
| 21>  C                 -0.57838800    4.41073000    2.76943100
| 22>  C                 -0.14255900    6.60146300    2.77163700
| 23>  N                 -0.37245300    5.50877400    1.97882800
| 24>  N                  0.10273500    7.84585000    2.38433100
| 25>  N                 -0.83403400    3.16848300    2.38137900
| 26>  H                 -0.52762200    4.28541000    7.50178100
| 27>  H                 -0.04253100    6.70428000    7.49990200
| 28>  H                 -0.81304200    3.03940300    5.35846100
| 29>  H                  0.17262400    7.95992700    5.34936800
| 30>  C                 -1.83322900   -0.87039900   -0.70015500
| 31>  C                 -1.83322900   -0.87039900    0.70015500
| 32>  C                 -1.37585800    0.22445500   -1.43966800
| 33>  C                 -1.24189400    1.41415600   -0.70702900
| 34>  C                 -1.24189400    1.41415600    0.70702900
| 35>  C                 -1.37585800    0.22445500    1.43966800
| 36>  C                 -0.92996000    2.77832100   -1.11339000
| 37>  C                 -0.92996000    2.77832100    1.11339000
| 38>  N                 -0.77677600    3.55956500    0.00000000
| 39>  N                 -0.83403400    3.16848300   -2.38137900
| 40>  H                 -2.04446700   -1.80264500   -1.21990100
| 41>  H                 -2.04446700   -1.80264500    1.21990100
| 42>  C                  0.94414800   11.93103500    0.70298500
| 43>  C                  0.94414800   11.93103500   -0.70298500
| 44>  C                  0.70016400   10.76555300    1.42378400
| 45>  C                  0.45435000    9.59828700    0.70352800
| 46>  C                  0.45435000    9.59828700   -0.70352800
| 47>  C                  0.70016400   10.76555300   -1.42378400
| 48>  C                  0.17008900    8.22979900    1.11587400
| 49>  C                  0.17008900    8.22979900   -1.11587400
| 50>  N                  0.00681400    7.45395100    0.00000000
| 51>  N                  0.10273500    7.84585000   -2.38433100
| 52>  H                  1.13875000   12.85963800    1.23340200
| 53>  H                  1.13875000   12.85963800   -1.23340200
| 54>  H                  0.69919800   10.75669800    2.50965300
| 55>  H                  0.69919800   10.75669800   -2.50965300
| 56>  C                 -0.16120400    6.18612300   -6.55179800
| 57>  C                 -0.43707400    4.80767900   -6.55281300
| 58>  C                 -0.03940200    6.89499400   -5.36025100
| 59>  C                 -0.19998900    6.19107400   -4.16853800
| 60>  C                 -0.47423700    4.81107600   -4.16844800
| 61>  C                 -0.59698600    4.10354900   -5.36272800
| 62>  C                 -0.14255900    6.60146300   -2.77163700
| 63>  C                 -0.57838800    4.41073000   -2.76943100
| 64>  N                 -0.37245300    5.50877400   -1.97882800
| 65>  H                 -0.04253100    6.70428000   -7.49990200
| 66>  H                 -0.52762200    4.28541000   -7.50178100
| 67>  H                  0.17262400    7.95992700   -5.34936800
| 68>  H                 -0.81304200    3.03940300   -5.35846100
| 69>  Zn                -0.45499300    5.51908400    0.00000000
| 70>  C                 -0.79588000    0.01750500    2.81683000
| 71>  H                 -1.10822600    0.80794700    3.50412700
| 72>  H                 -1.15980300   -0.93884100    3.20575800
| 73>  C                 -0.79588000    0.01750500   -2.81683000
| 74>  H                 -1.10822600    0.80794700   -3.50412700
| 75>  H                 -1.15980300   -0.93884100   -3.20575800
| 76>  C                  0.43707400   -4.80767900    6.55281300
| 77>  C                  0.16120400   -6.18612300    6.55179800
| 78>  C                  0.59698600   -4.10354900    5.36272800
| 79>  C                  0.47423700   -4.81107600    4.16844800
| 80>  C                  0.19998900   -6.19107400    4.16853800
| 81>  C                  0.03940200   -6.89499400    5.36025100
| 82>  C                  0.57838800   -4.41073000    2.76943100
| 83>  C                  0.14255900   -6.60146300    2.77163700
| 84>  N                  0.37245300   -5.50877400    1.97882800
| 85>  N                 -0.10273500   -7.84585000    2.38433100
| 86>  N                  0.83403400   -3.16848300    2.38137900
| 87>  H                  0.52762200   -4.28541000    7.50178100
| 88>  H                  0.04253100   -6.70428000    7.49990200
| 89>  H                  0.81304200   -3.03940300    5.35846100
| 90>  H                 -0.17262400   -7.95992700    5.34936800
| 91>  C                  1.83322900    0.87039900   -0.70015500
| 92>  C                  1.83322900    0.87039900    0.70015500
| 93>  C                  1.37585800   -0.22445500   -1.43966800
| 94>  C                  1.24189400   -1.41415600   -0.70702900
| 95>  C                  1.24189400   -1.41415600    0.70702900
| 96>  C                  1.37585800   -0.22445500    1.43966800
| 97>  C                  0.92996000   -2.77832100   -1.11339000
| 98>  C                  0.92996000   -2.77832100    1.11339000
| 99>  N                  0.77677600   -3.55956500    0.00000000
|100>  N                  0.83403400   -3.16848300   -2.38137900
|101>  H                  2.04446700    1.80264500   -1.21990100
|102>  H                  2.04446700    1.80264500    1.21990100
|103>  C                 -0.94414800  -11.93103500    0.70298500
|104>  C                 -0.94414800  -11.93103500   -0.70298500
|105>  C                 -0.70016400  -10.76555300    1.42378400
|106>  C                 -0.45435000   -9.59828700    0.70352800
|107>  C                 -0.45435000   -9.59828700   -0.70352800
|108>  C                 -0.70016400  -10.76555300   -1.42378400
|109>  C                 -0.17008900   -8.22979900    1.11587400
|110>  C                 -0.17008900   -8.22979900   -1.11587400
|111>  N                 -0.00681400   -7.45395100    0.00000000
|112>  N                 -0.10273500   -7.84585000   -2.38433100
|113>  H                 -1.13875000  -12.85963800    1.23340200
|114>  H                 -1.13875000  -12.85963800   -1.23340200
|115>  H                 -0.69919800  -10.75669800    2.50965300
|116>  H                 -0.69919800  -10.75669800   -2.50965300
|117>  C                  0.16120400   -6.18612300   -6.55179800
|118>  C                  0.43707400   -4.80767900   -6.55281300
|119>  C                  0.03940200   -6.89499400   -5.36025100
|120>  C                  0.19998900   -6.19107400   -4.16853800
|121>  C                  0.47423700   -4.81107600   -4.16844800
|122>  C                  0.59698600   -4.10354900   -5.36272800
|123>  C                  0.14255900   -6.60146300   -2.77163700
|124>  C                  0.57838800   -4.41073000   -2.76943100
|125>  N                  0.37245300   -5.50877400   -1.97882800
|126>  H                  0.04253100   -6.70428000   -7.49990200
|127>  H                  0.52762200   -4.28541000   -7.50178100
|128>  H                 -0.17262400   -7.95992700   -5.34936800
|129>  H                  0.81304200   -3.03940300   -5.35846100
|130>  Zn                 0.45499300   -5.51908400    0.00000000
|131>  C                  0.79588000   -0.01750500    2.81683000
|132>  H                  1.10822600   -0.80794700    3.50412700
|133>  H                  1.15980300    0.93884100    3.20575800
|134>  C                  0.79588000   -0.01750500   -2.81683000
|135>  H                  1.10822600   -0.80794700   -3.50412700
|136>  H                  1.15980300    0.93884100   -3.20575800
|137> *
|138> 
|139> 
|140>                          ****END OF INPUT****
================================================================================

                       ****************************
                       * Single Point Calculation *
                       ****************************

---------------------------------
CARTESIAN COORDINATES (ANGSTROEM)
---------------------------------
  C     -0.437074    4.807679    6.552813
  C     -0.161204    6.186123    6.551798
  C     -0.596986    4.103549    5.362728
  C     -0.474237    4.811076    4.168448
  C     -0.199989    6.191074    4.168538
  C     -0.039402    6.894994    5.360251
  C     -0.578388    4.410730    2.769431
  C     -0.142559    6.601463    2.771637
  N     -0.372453    5.508774    1.978828
  N      0.102735    7.845850    2.384331
  N     -0.834034    3.168483    2.381379
  H     -0.527622    4.285410    7.501781
  H     -0.042531    6.704280    7.499902
  H     -0.813042    3.039403    5.358461
  H      0.172624    7.959927    5.349368
  C     -1.833229   -0.870399   -0.700155
  C     -1.833229   -0.870399    0.700155
  C     -1.375858    0.224455   -1.439668
  C     -1.241894    1.414156   -0.707029
  C     -1.241894    1.414156    0.707029
  C     -1.375858    0.224455    1.439668
  C     -0.929960    2.778321   -1.113390
  C     -0.929960    2.778321    1.113390
  N     -0.776776    3.559565    0.000000
  N     -0.834034    3.168483   -2.381379
  H     -2.044467   -1.802645   -1.219901
  H     -2.044467   -1.802645    1.219901
  C      0.944148   11.931035    0.702985
  C      0.944148   11.931035   -0.702985
  C      0.700164   10.765553    1.423784
  C      0.454350    9.598287    0.703528
  C      0.454350    9.598287   -0.703528
  C      0.700164   10.765553   -1.423784
  C      0.170089    8.229799    1.115874
  C      0.170089    8.229799   -1.115874
  N      0.006814    7.453951    0.000000
  N      0.102735    7.845850   -2.384331
  H      1.138750   12.859638    1.233402
  H      1.138750   12.859638   -1.233402
  H      0.699198   10.756698    2.509653
  H      0.699198   10.756698   -2.509653
  C     -0.161204    6.186123   -6.551798
  C     -0.437074    4.807679   -6.552813
  C     -0.039402    6.894994   -5.360251
  C     -0.199989    6.191074   -4.168538
  C     -0.474237    4.811076   -4.168448
  C     -0.596986    4.103549   -5.362728
  C     -0.142559    6.601463   -2.771637
  C     -0.578388    4.410730   -2.769431
  N     -0.372453    5.508774   -1.978828
  H     -0.042531    6.704280   -7.499902
  H     -0.527622    4.285410   -7.501781
  H      0.172624    7.959927   -5.349368
  H     -0.813042    3.039403   -5.358461
  Zn    -0.454993    5.519084    0.000000
  C     -0.795880    0.017505    2.816830
  H     -1.108226    0.807947    3.504127
  H     -1.159803   -0.938841    3.205758
  C     -0.795880    0.017505   -2.816830
  H     -1.108226    0.807947   -3.504127
  H     -1.159803   -0.938841   -3.205758
  C      0.437074   -4.807679    6.552813
  C      0.161204   -6.186123    6.551798
  C      0.596986   -4.103549    5.362728
  C      0.474237   -4.811076    4.168448
  C      0.199989   -6.191074    4.168538
  C      0.039402   -6.894994    5.360251
  C      0.578388   -4.410730    2.769431
  C      0.142559   -6.601463    2.771637
  N      0.372453   -5.508774    1.978828
  N     -0.102735   -7.845850    2.384331
  N      0.834034   -3.168483    2.381379
  H      0.527622   -4.285410    7.501781
  H      0.042531   -6.704280    7.499902
  H      0.813042   -3.039403    5.358461
  H     -0.172624   -7.959927    5.349368
  C      1.833229    0.870399   -0.700155
  C      1.833229    0.870399    0.700155
  C      1.375858   -0.224455   -1.439668
  C      1.241894   -1.414156   -0.707029
  C      1.241894   -1.414156    0.707029
  C      1.375858   -0.224455    1.439668
  C      0.929960   -2.778321   -1.113390
  C      0.929960   -2.778321    1.113390
  N      0.776776   -3.559565    0.000000
  N      0.834034   -3.168483   -2.381379
  H      2.044467    1.802645   -1.219901
  H      2.044467    1.802645    1.219901
  C     -0.944148  -11.931035    0.702985
  C     -0.944148  -11.931035   -0.702985
  C     -0.700164  -10.765553    1.423784
  C     -0.454350   -9.598287    0.703528
  C     -0.454350   -9.598287   -0.703528
  C     -0.700164  -10.765553   -1.423784
  C     -0.170089   -8.229799    1.115874
  C     -0.170089   -8.229799   -1.115874
  N     -0.006814   -7.453951    0.000000
  N     -0.102735   -7.845850   -2.384331
  H     -1.138750  -12.859638    1.233402
  H     -1.138750  -12.859638   -1.233402
  H     -0.699198  -10.756698    2.509653
  H     -0.699198  -10.756698   -2.509653
  C      0.161204   -6.186123   -6.551798
  C      0.437074   -4.807679   -6.552813
  C      0.039402   -6.894994   -5.360251
  C      0.199989   -6.191074   -4.168538
  C      0.474237   -4.811076   -4.168448
  C      0.596986   -4.103549   -5.362728
  C      0.142559   -6.601463   -2.771637
  C      0.578388   -4.410730   -2.769431
  N      0.372453   -5.508774   -1.978828
  H      0.042531   -6.704280   -7.499902
  H      0.527622   -4.285410   -7.501781
  H     -0.172624   -7.959927   -5.349368
  H      0.813042   -3.039403   -5.358461
  Zn     0.454993   -5.519084    0.000000
  C      0.795880   -0.017505    2.816830
  H      1.108226   -0.807947    3.504127
  H      1.159803    0.938841    3.205758
  C      0.795880   -0.017505   -2.816830
  H      1.108226   -0.807947   -3.504127
  H      1.159803    0.938841   -3.205758

----------------------------
CARTESIAN COORDINATES (A.U.)
----------------------------
  NO LB      ZA    FRAG     MASS         X           Y           Z
   0 C     6.0000    0    12.011   -0.825950    9.085197   12.383022
   1 C     6.0000    0    12.011   -0.304631   11.690078   12.381104
   2 C     6.0000    0    12.011   -1.128140    7.754584   10.134087
   3 C     6.0000    0    12.011   -0.896178    9.091616    7.877225
   4 C     6.0000    0    12.011   -0.377924   11.699434    7.877395
   5 C     6.0000    0    12.011   -0.074459   13.029650   10.129406
   6 C     6.0000    0    12.011   -1.092995    8.335072    5.233466
   7 C     6.0000    0    12.011   -0.269397   12.474957    5.237635
   8 N     7.0000    0    14.007   -0.703834   10.410074    3.739443
   9 N     7.0000    0    14.007    0.194141   14.826508    4.505733
  10 N     7.0000    0    14.007   -1.576096    5.987565    4.500154
  11 H     1.0000    0     1.008   -0.997061    8.098251   14.176312
  12 H     1.0000    0     1.008   -0.080372   12.669253   14.172761
  13 H     1.0000    0     1.008   -1.536427    5.743639   10.126024
  14 H     1.0000    0     1.008    0.326212   15.042082   10.108841
  15 C     6.0000    0    12.011   -3.464301   -1.644816   -1.323101
  16 C     6.0000    0    12.011   -3.464301   -1.644816    1.323101
  17 C     6.0000    0    12.011   -2.599995    0.424158   -2.720578
  18 C     6.0000    0    12.011   -2.346840    2.672368   -1.336091
  19 C     6.0000    0    12.011   -2.346840    2.672368    1.336091
  20 C     6.0000    0    12.011   -2.599995    0.424158    2.720578
  21 C     6.0000    0    12.011   -1.757370    5.250266   -2.104002
  22 C     6.0000    0    12.011   -1.757370    5.250266    2.104002
  23 N     7.0000    0    14.007   -1.467894    6.726603    0.000000
  24 N     7.0000    0    14.007   -1.576096    5.987565   -4.500154
  25 H     1.0000    0     1.008   -3.863483   -3.406505   -2.305279
  26 H     1.0000    0     1.008   -3.863483   -3.406505    2.305279
  27 C     6.0000    0    12.011    1.784181   22.546389    1.328449
  28 C     6.0000    0    12.011    1.784181   22.546389   -1.328449
  29 C     6.0000    0    12.011    1.323118   20.343947    2.690562
  30 C     6.0000    0    12.011    0.858597   18.138134    1.329475
  31 C     6.0000    0    12.011    0.858597   18.138134   -1.329475
  32 C     6.0000    0    12.011    1.323118   20.343947   -2.690562
  33 C     6.0000    0    12.011    0.321422   15.552066    2.108696
  34 C     6.0000    0    12.011    0.321422   15.552066   -2.108696
  35 N     7.0000    0    14.007    0.012877   14.085926    0.000000
  36 N     7.0000    0    14.007    0.194141   14.826508   -4.505733
  37 H     1.0000    0     1.008    2.151926   24.301194    2.330792
  38 H     1.0000    0     1.008    2.151926   24.301194   -2.330792
  39 H     1.0000    0     1.008    1.321293   20.327213    4.742557
  40 H     1.0000    0     1.008    1.321293   20.327213   -4.742557
  41 C     6.0000    0    12.011   -0.304631   11.690078  -12.381104
  42 C     6.0000    0    12.011   -0.825950    9.085197  -12.383022
  43 C     6.0000    0    12.011   -0.074459   13.029650  -10.129406
  44 C     6.0000    0    12.011   -0.377924   11.699434   -7.877395
  45 C     6.0000    0    12.011   -0.896178    9.091616   -7.877225
  46 C     6.0000    0    12.011   -1.128140    7.754584  -10.134087
  47 C     6.0000    0    12.011   -0.269397   12.474957   -5.237635
  48 C     6.0000    0    12.011   -1.092995    8.335072   -5.233466
  49 N     7.0000    0    14.007   -0.703834   10.410074   -3.739443
  50 H     1.0000    0     1.008   -0.080372   12.669253  -14.172761
  51 H     1.0000    0     1.008   -0.997061    8.098251  -14.176312
  52 H     1.0000    0     1.008    0.326212   15.042082  -10.108841
  53 H     1.0000    0     1.008   -1.536427    5.743639  -10.126024
  54 Zn   30.0000    0    65.380   -0.859812   10.429557    0.000000
  55 C     6.0000    0    12.011   -1.503995    0.033080    5.323037
  56 H     1.0000    0     1.008   -2.094244    1.526799    6.621840
  57 H     1.0000    0     1.008   -2.191710   -1.774152    6.058005
  58 C     6.0000    0    12.011   -1.503995    0.033080   -5.323037
  59 H     1.0000    0     1.008   -2.094244    1.526799   -6.621840
  60 H     1.0000    0     1.008   -2.191710   -1.774152   -6.058005
  61 C     6.0000    0    12.011    0.825950   -9.085197   12.383022
  62 C     6.0000    0    12.011    0.304631  -11.690078   12.381104
  63 C     6.0000    0    12.011    1.128140   -7.754584   10.134087
  64 C     6.0000    0    12.011    0.896178   -9.091616    7.877225
  65 C     6.0000    0    12.011    0.377924  -11.699434    7.877395
  66 C     6.0000    0    12.011    0.074459  -13.029650   10.129406
  67 C     6.0000    0    12.011    1.092995   -8.335072    5.233466
  68 C     6.0000    0    12.011    0.269397  -12.474957    5.237635
  69 N     7.0000    0    14.007    0.703834  -10.410074    3.739443
  70 N     7.0000    0    14.007   -0.194141  -14.826508    4.505733
  71 N     7.0000    0    14.007    1.576096   -5.987565    4.500154
  72 H     1.0000    0     1.008    0.997061   -8.098251   14.176312
  73 H     1.0000    0     1.008    0.080372  -12.669253   14.172761
  74 H     1.0000    0     1.008    1.536427   -5.743639   10.126024
  75 H     1.0000    0     1.008   -0.326212  -15.042082   10.108841
  76 C     6.0000    0    12.011    3.464301    1.644816   -1.323101
  77 C     6.0000    0    12.011    3.464301    1.644816    1.323101
  78 C     6.0000    0    12.011    2.599995   -0.424158   -2.720578
  79 C     6.0000    0    12.011    2.346840   -2.672368   -1.336091
  80 C     6.0000    0    12.011    2.346840   -2.672368    1.336091
  81 C     6.0000    0    12.011    2.599995   -0.424158    2.720578
  82 C     6.0000    0    12.011    1.757370   -5.250266   -2.104002
  83 C     6.0000    0    12.011    1.757370   -5.250266    2.104002
  84 N     7.0000    0    14.007    1.467894   -6.726603    0.000000
  85 N     7.0000    0    14.007    1.576096   -5.987565   -4.500154
  86 H     1.0000    0     1.008    3.863483    3.406505   -2.305279
  87 H     1.0000    0     1.008    3.863483    3.406505    2.305279
  88 C     6.0000    0    12.011   -1.784181  -22.546389    1.328449
  89 C     6.0000    0    12.011   -1.784181  -22.546389   -1.328449
  90 C     6.0000    0    12.011   -1.323118  -20.343947    2.690562
  91 C     6.0000    0    12.011   -0.858597  -18.138134    1.329475
  92 C     6.0000    0    12.011   -0.858597  -18.138134   -1.329475
  93 C     6.0000    0    12.011   -1.323118  -20.343947   -2.690562
  94 C     6.0000    0    12.011   -0.321422  -15.552066    2.108696
  95 C     6.0000    0    12.011   -0.321422  -15.552066   -2.108696
  96 N     7.0000    0    14.007   -0.012877  -14.085926    0.000000
  97 N     7.0000    0    14.007   -0.194141  -14.826508   -4.505733
  98 H     1.0000    0     1.008   -2.151926  -24.301194    2.330792
  99 H     1.0000    0     1.008   -2.151926  -24.301194   -2.330792
 100 H     1.0000    0     1.008   -1.321293  -20.327213    4.742557
 101 H     1.0000    0     1.008   -1.321293  -20.327213   -4.742557
 102 C     6.0000    0    12.011    0.304631  -11.690078  -12.381104
 103 C     6.0000    0    12.011    0.825950   -9.085197  -12.383022
 104 C     6.0000    0    12.011    0.074459  -13.029650  -10.129406
 105 C     6.0000    0    12.011    0.377924  -11.699434   -7.877395
 106 C     6.0000    0    12.011    0.896178   -9.091616   -7.877225
 107 C     6.0000    0    12.011    1.128140   -7.754584  -10.134087
 108 C     6.0000    0    12.011    0.269397  -12.474957   -5.237635
 109 C     6.0000    0    12.011    1.092995   -8.335072   -5.233466
 110 N     7.0000    0    14.007    0.703834  -10.410074   -3.739443
 111 H     1.0000    0     1.008    0.080372  -12.669253  -14.172761
 112 H     1.0000    0     1.008    0.997061   -8.098251  -14.176312
 113 H     1.0000    0     1.008   -0.326212  -15.042082  -10.108841
 114 H     1.0000    0     1.008    1.536427   -5.743639  -10.126024
 115 Zn   30.0000    0    65.380    0.859812  -10.429557    0.000000
 116 C     6.0000    0    12.011    1.503995   -0.033080    5.323037
 117 H     1.0000    0     1.008    2.094244   -1.526799    6.621840
 118 H     1.0000    0     1.008    2.191710    1.774152    6.058005
 119 C     6.0000    0    12.011    1.503995   -0.033080   -5.323037
 120 H     1.0000    0     1.008    2.094244   -1.526799   -6.621840
 121 H     1.0000    0     1.008    2.191710    1.774152   -6.058005

--------------------------------
INTERNAL COORDINATES (ANGSTROEM)
--------------------------------
 C      0   0   0     0.000000000000     0.00000000     0.00000000
 C      1   0   0     1.405778484777     0.00000000     0.00000000
 C      1   2   0     1.392003308857   121.19351308     0.00000000
 C      3   1   2     1.393544578092   117.75890997     0.00000000
 C      4   3   1     1.406984880376   121.00371115   359.90030542
 C      2   1   3     1.391803892455   121.14506325     0.05023405
 C      4   3   1     1.458894415921   132.54894148   180.09224876
 C      5   4   3     1.457068886505   106.49148584   180.13027346
 N      7   4   3     1.368635434939   108.84714276   179.89862930
 N      8   5   4     1.326150100796   123.47492282   180.23806817
 N      7   4   3     1.326317021315   123.45994365   359.92768491
 H      1   2   3     1.086970153081   119.21686285   180.06857453
 H      2   1   3     1.086954990970   119.22440554   179.99067320
 H      3   1   2     1.085866065287   121.46236796   180.18233232
 H      6   2   1     1.085889386104   121.67878951   179.94343987
 C     11   7   4     5.177529357822   160.38442237   175.57042801
 C     16  11   7     1.400310000000    53.47491957   186.46914399
 C     16  11   7     1.398131964489    68.94932835    14.44501915
 C     18  16  11     1.403600629459   114.76409196   352.31211044
 C     19  18  16     1.414058000000   121.46456380    15.15904038
 C     17  16  11     1.398131964489   121.93314232   351.22308224
 C     19  18  16     1.457181604983   131.94148410   186.81288418
 C     11   7   4     1.330121907135   124.57937619   180.20235356
 N     22  19  18     1.368738403601   109.35722172   186.30631248
 N     22  19  18     1.330121907135   123.77157492     7.06848911
 H     16  11   7     1.088044117523   171.95320563   179.36870369
 H     17  16  11     1.088044117523   118.53453308   181.12853889
 C     10   8   5     4.497069789597   175.00491055   173.71908112
 C     28  10   8     1.405970000000   111.95485342     5.35798699
 C     28  10   8     1.391915113425     9.23456911   184.36977648
 C     30  28  29     1.393450086256   117.68836929   359.93380034
 C     31  30  28     1.407056000000   121.12365703     0.06615477
 C     29  28  10     1.391915113425   121.18793984     0.18536782
 C     10   8   5     1.327002847309   124.05944882   179.34053160
 C     32  31  30     1.457255278248   106.43698938   179.84242565
 N     34  10   8     1.368858512997   127.52992232     0.02580269
 N     35  32  31     1.327002847309   123.51041588   180.62869069
 H     28  10   8     1.086975466099   128.83721275   185.57939528
 H     29  28  10     1.086975466099   119.20757975   180.19758283
 H     30  28  38     1.085905534263   121.65568202   359.95840445
 H     33  29  28     1.085905534263   121.65568202   180.05385835
 C     37  35  32     4.493566368302   175.11104788   173.93277743
 C     42  37  35     1.405778484777   111.98541600     5.61221428
 C     42  37  35     1.391803892455     9.15967778   185.46980183
 C     44  42  43     1.393366938512   117.69895178     0.00000000
 C     45  44  42     1.406984880376   121.19972734     0.07399108
 C     43  42  37     1.392003308857   121.19351308   359.97625404
 C     37  35  32     1.326150100796   124.05944882   179.33380674
 C     25  22  19     1.326317021315   124.57937619   178.54084316
 N     49  25  22     1.368635434939   127.69290625   359.76289630
 H     42  37  48     1.086954990970   128.79016855   179.82247274
 H     43  42  37     1.086970153081   119.21686285   179.90767950
 H     44  42  51     1.085889386104   121.67878951     0.00000000
 H     47  43  42     1.085866065287   121.46236796   179.81766768
 Zn     9   7   4     1.980575522742   125.10340298   181.75145745
 C     21  17  16     1.508568181166   120.07925285   208.10325147
 H     56  21  17     1.093039681480   111.40481894   219.40709300
 H     56  21  17     1.094670092233   108.44415476   338.45561175
 C     18  16  11     1.508568181166   120.07925285   159.44651554
 H     59  18  16     1.093039681480   111.40481894   140.59290700
 H     59  18  16     1.094670092233   108.44415476    21.54438825
 C     58  56  21     5.359169786114   138.89664244   150.97712821
 C     62  58  56     1.405778484777   130.46233991   210.12298082
 C     62  58  56     1.392003308857    30.12952918   293.60674372
 C     64  62  58     1.393544578092   117.75890997   242.09799706
 C     65  64  62     1.406984880376   121.00371115   359.90030542
 C     63  62  58     1.391803892455   121.14506325    35.71224219
 C     65  64  62     1.458894415921   132.54894148   180.09224876
 C     66  65  64     1.457068886505   106.49148584   180.13027346
 N     68  65  64     1.368635434939   108.84714276   179.89862930
 N     69  66  65     1.326150100796   123.47492282   180.23806817
 N     68  65  64     1.326317021315   123.45994365   359.92768491
 H     62  58  56     1.086970153081   102.89776517    61.53114472
 H     63  62  58     1.086954990970   119.22440554   215.65268134
 H     64  62  58     1.085866065287   121.46236796    62.27147504
 H     67  63  62     1.085889386104   121.67878951   179.94343987
 C     19  18  16     3.122835312989    86.99323747   103.16889528
 C     77  19  18     1.400310000000    90.12611985   238.47923284
 C     77  19  18     1.398131964489    79.22553289     1.02708211
 C     79  77  19     1.403600629459   114.76409196   261.42150595
 C     80  79  77     1.414058000000   121.46456380    15.15904038
 C     78  77  19     1.398131964489   121.93314232    77.35509901
 C     80  79  77     1.457181604983   131.94148410   186.81288418
 C     72  68  65     1.330121907135   124.57937619   180.20235356
 N     83  80  79     1.368738403601   109.35722172   186.30631248
 N     83  80  79     1.330121907135   123.77157492     7.06848911
 H     77  19  18     1.088044117523    92.34616929   119.91260043
 H     78  77  19     1.088044117523   118.53453308   267.26055565
 C     71  69  66     4.497069789597   175.00491055   173.71908112
 C     89  71  69     1.405970000000   111.95485342     5.35798699
 C     89  71  69     1.391915113425     9.23456911   184.36977648
 C     91  89  90     1.393450086256   117.68836929   359.93380034
 C     92  91  89     1.407056000000   121.12365703     0.06615477
 C     90  89  71     1.391915113425   121.18793984     0.18536782
 C     71  69  66     1.327002847309   124.05944882   179.34053160
 C     93  92  91     1.457255278248   106.43698938   179.84242565
 N     95  71  69     1.368858512997   127.52992232     0.02580269
 N     96  93  92     1.327002847309   123.51041588   180.62869069
 H     89  71  69     1.086975466099   128.83721275   185.57939528
 H     90  89  71     1.086975466099   119.20757975   180.19758283
 H     91  89  99     1.085905534263   121.65568202   359.95840445
 H     94  90  89     1.085905534263   121.65568202   180.05385835
 C     98  96  93     4.493566368302   175.11104788   173.93277743
 C    103  98  96     1.405778484777   111.98541600     5.61221428
 C    103  98  96     1.391803892455     9.15967778   185.46980183
 C    105 103 104     1.393366938512   117.69895178     0.00000000
 C    106 105 103     1.406984880376   121.19972734     0.07399108
 C    104 103  98     1.392003308857   121.19351308   359.97625404
 C     98  96  93     1.326150100796   124.05944882   179.33380674
 C     86  83  80     1.326317021315   124.57937619   178.54084316
 N    110  86  83     1.368635434939   127.69290625   359.76289630
 H    103  98 109     1.086954990970   128.79016855   179.82247274
 H    104 103  98     1.086970153081   119.21686285   179.90767950
 H    105 103 112     1.085889386104   121.67878951     0.00000000
 H    108 104 103     1.085866065287   121.46236796   179.81766768
 Zn    70  68  65     1.980575522742   125.10340298   181.75145745
 C     82  78  77     1.508568181166   120.07925285   208.10325147
 H    117  82  78     1.093039681480   111.40481894   219.40709300
 H    117  82  78     1.094670092233   108.44415476   338.45561175
 C     79  77  19     1.508568181166   120.07925285    68.55591105
 H    120  79  77     1.093039681480   111.40481894   140.59290700
 H    120  79  77     1.094670092233   108.44415476    21.54438825

---------------------------
INTERNAL COORDINATES (A.U.)
---------------------------
 C      0   0   0     0.000000000000     0.00000000     0.00000000
 C      1   0   0     2.656536341187     0.00000000     0.00000000
 C      1   2   0     2.630505031252   121.19351308     0.00000000
 C      3   1   2     2.633417608005   117.75890997     0.00000000
 C      4   3   1     2.658816098479   121.00371115   359.90030542
 C      2   1   3     2.630128188866   121.14506325     0.05023405
 C      4   3   1     2.756910904398   132.54894148   180.09224876
 C      5   4   3     2.753461153753   106.49148584   180.13027346
 N      7   4   3     2.586346149214   108.84714276   179.89862930
 N      8   5   4     2.506060502976   123.47492282   180.23806817
 N      7   4   3     2.506375937043   123.45994365   359.92768491
 H      1   2   3     2.054075905070   119.21686285   180.06857453
 H      2   1   3     2.054047252832   119.22440554   179.99067320
 H      3   1   2     2.051989481510   121.46236796   180.18233232
 H      6   2   1     2.052033551469   121.67878951   179.94343987
 C     11   7   4     9.784112536620   160.38442237   175.57042801
 C     16  11   7     2.646202402591    53.47491957   186.46914399
 C     16  11   7     2.642086511966    68.94932835    14.44501915
 C     18  16  11     2.652420791077   114.76409196   352.31211044
 C     19  18  16     2.672182357480   121.46456380    15.15904038
 C     17  16  11     2.642086511966   121.93314232   351.22308224
 C     19  18  16     2.753674160806   131.94148410   186.81288418
 C     11   7   4     2.513566129215   124.57937619   180.20235356
 N     22  19  18     2.586540731786   109.35722172   186.30631248
 N     22  19  18     2.513566129215   123.77157492     7.06848911
 H     16  11   7     2.056105403742   171.95320563   179.36870369
 H     17  16  11     2.056105403742   118.53453308   181.12853889
 C     10   8   5     8.498230307470   175.00491055   173.71908112
 C     28  10   8     2.656898252509   111.95485342     5.35798699
 C     28  10   8     2.630338366039     9.23456911   184.36977648
 C     30  28  29     2.633239044314   117.68836929   359.93380034
 C     31  30  28     2.658950495091   121.12365703     0.06615477
 C     29  28  10     2.630338366039   121.18793984     0.18536782
 C     10   8   5     2.507671960348   124.05944882   179.34053160
 C     32  31  30     2.753813383100   106.43698938   179.84242565
 N     34  10   8     2.586767705651   127.52992232     0.02580269
 N     35  32  31     2.507671960348   123.51041588   180.62869069
 H     28  10   8     2.054085945219   128.83721275   185.57939528
 H     29  28  10     2.054085945219   119.20757975   180.19758283
 H     30  28  38     2.052064067066   121.65568202   359.95840445
 H     33  29  28     2.052064067066   121.65568202   180.05385835
 C     37  35  32     8.491609800691   175.11104788   173.93277743
 C     42  37  35     2.656536341187   111.98541600     5.61221428
 C     42  37  35     2.630128188866     9.15967778   185.46980183
 C     44  42  43     2.633081917848   117.69895178     0.00000000
 C     45  44  42     2.658816098479   121.19972734     0.07399108
 C     43  42  37     2.630505031252   121.19351308   359.97625404
 C     37  35  32     2.506060502976   124.05944882   179.33380674
 C     25  22  19     2.506375937043   124.57937619   178.54084316
 N     49  25  22     2.586346149214   127.69290625   359.76289630
 H     42  37  48     2.054047252832   128.79016855   179.82247274
 H     43  42  37     2.054075905070   119.21686285   179.90767950
 H     44  42  51     2.052033551469   121.67878951     0.00000000
 H     47  43  42     2.051989481510   121.46236796   179.81766768
 Zn     9   7   4     3.742745325530   125.10340298   181.75145745
 C     21  17  16     2.850780716752   120.07925285   208.10325147
 H     56  21  17     2.065545651505   111.40481894   219.40709300
 H     56  21  17     2.068626681314   108.44415476   338.45561175
 C     18  16  11     2.850780716752   120.07925285   159.44651554
 H     59  18  16     2.065545651505   111.40481894   140.59290700
 H     59  18  16     2.068626681314   108.44415476    21.54438825
 C     58  56  21    10.127363200941   138.89664244   150.97712821
 C     62  58  56     2.656536341187   130.46233991   210.12298082
 C     62  58  56     2.630505031252    30.12952918   293.60674372
 C     64  62  58     2.633417608005   117.75890997   242.09799706
 C     65  64  62     2.658816098479   121.00371115   359.90030542
 C     63  62  58     2.630128188866   121.14506325    35.71224219
 C     65  64  62     2.756910904398   132.54894148   180.09224876
 C     66  65  64     2.753461153753   106.49148584   180.13027346
 N     68  65  64     2.586346149214   108.84714276   179.89862930
 N     69  66  65     2.506060502976   123.47492282   180.23806817
 N     68  65  64     2.506375937043   123.45994365   359.92768491
 H     62  58  56     2.054075905070   102.89776517    61.53114472
 H     63  62  58     2.054047252832   119.22440554   215.65268134
 H     64  62  58     2.051989481510   121.46236796    62.27147504
 H     67  63  62     2.052033551469   121.67878951   179.94343987
 C     19  18  16     5.901303502888    86.99323747   103.16889528
 C     77  19  18     2.646202402591    90.12611985   238.47923284
 C     77  19  18     2.642086511966    79.22553289     1.02708211
 C     79  77  19     2.652420791077   114.76409196   261.42150595
 C     80  79  77     2.672182357480   121.46456380    15.15904038
 C     78  77  19     2.642086511966   121.93314232    77.35509901
 C     80  79  77     2.753674160806   131.94148410   186.81288418
 C     72  68  65     2.513566129215   124.57937619   180.20235356
 N     83  80  79     2.586540731786   109.35722172   186.30631248
 N     83  80  79     2.513566129215   123.77157492     7.06848911
 H     77  19  18     2.056105403742    92.34616929   119.91260043
 H     78  77  19     2.056105403742   118.53453308   267.26055565
 C     71  69  66     8.498230307470   175.00491055   173.71908112
 C     89  71  69     2.656898252509   111.95485342     5.35798699
 C     89  71  69     2.630338366039     9.23456911   184.36977648
 C     91  89  90     2.633239044314   117.68836929   359.93380034
 C     92  91  89     2.658950495091   121.12365703     0.06615477
 C     90  89  71     2.630338366039   121.18793984     0.18536782
 C     71  69  66     2.507671960348   124.05944882   179.34053160
 C     93  92  91     2.753813383100   106.43698938   179.84242565
 N     95  71  69     2.586767705651   127.52992232     0.02580269
 N     96  93  92     2.507671960348   123.51041588   180.62869069
 H     89  71  69     2.054085945219   128.83721275   185.57939528
 H     90  89  71     2.054085945219   119.20757975   180.19758283
 H     91  89  99     2.052064067066   121.65568202   359.95840445
 H     94  90  89     2.052064067066   121.65568202   180.05385835
 C     98  96  93     8.491609800691   175.11104788   173.93277743
 C    103  98  96     2.656536341187   111.98541600     5.61221428
 C    103  98  96     2.630128188866     9.15967778   185.46980183
 C    105 103 104     2.633081917848   117.69895178     0.00000000
 C    106 105 103     2.658816098479   121.19972734     0.07399108
 C    104 103  98     2.630505031252   121.19351308   359.97625404
 C     98  96  93     2.506060502976   124.05944882   179.33380674
 C     86  83  80     2.506375937043   124.57937619   178.54084316
 N    110  86  83     2.586346149214   127.69290625   359.76289630
 H    103  98 109     2.054047252832   128.79016855   179.82247274
 H    104 103  98     2.054075905070   119.21686285   179.90767950
 H    105 103 112     2.052033551469   121.67878951     0.00000000
 H    108 104 103     2.051989481510   121.46236796   179.81766768
 Zn    70  68  65     3.742745325530   125.10340298   181.75145745
 C     82  78  77     2.850780716752   120.07925285   208.10325147
 H    117  82  78     2.065545651505   111.40481894   219.40709300
 H    117  82  78     2.068626681314   108.44415476   338.45561175
 C     79  77  19     2.850780716752   120.07925285    68.55591105
 H    120  79  77     2.065545651505   111.40481894   140.59290700
 H    120  79  77     2.068626681314   108.44415476    21.54438825

---------------------
BASIS SET INFORMATION
---------------------
There are 4 groups of distinct atoms

 Group   1 Type C   : 11s6p2d contracted to 5s3p2d pattern {62111/411/11}
 Group   2 Type N   : 11s6p2d contracted to 5s3p2d pattern {62111/411/11}
 Group   3 Type H   : 5s1p contracted to 3s1p pattern {311/1}
 Group   4 Type Zn  : 17s12p7d1f contracted to 6s5p4d1f pattern {842111/63111/4111/1}

Atom   0C    basis set group =>   1
Atom   1C    basis set group =>   1
Atom   2C    basis set group =>   1
Atom   3C    basis set group =>   1
Atom   4C    basis set group =>   1
Atom   5C    basis set group =>   1
Atom   6C    basis set group =>   1
Atom   7C    basis set group =>   1
Atom   8N    basis set group =>   2
Atom   9N    basis set group =>   2
Atom  10N    basis set group =>   2
Atom  11H    basis set group =>   3
Atom  12H    basis set group =>   3
Atom  13H    basis set group =>   3
Atom  14H    basis set group =>   3
Atom  15C    basis set group =>   1
Atom  16C    basis set group =>   1
Atom  17C    basis set group =>   1
Atom  18C    basis set group =>   1
Atom  19C    basis set group =>   1
Atom  20C    basis set group =>   1
Atom  21C    basis set group =>   1
Atom  22C    basis set group =>   1
Atom  23N    basis set group =>   2
Atom  24N    basis set group =>   2
Atom  25H    basis set group =>   3
Atom  26H    basis set group =>   3
Atom  27C    basis set group =>   1
Atom  28C    basis set group =>   1
Atom  29C    basis set group =>   1
Atom  30C    basis set group =>   1
Atom  31C    basis set group =>   1
Atom  32C    basis set group =>   1
Atom  33C    basis set group =>   1
Atom  34C    basis set group =>   1
Atom  35N    basis set group =>   2
Atom  36N    basis set group =>   2
Atom  37H    basis set group =>   3
Atom  38H    basis set group =>   3
Atom  39H    basis set group =>   3
Atom  40H    basis set group =>   3
Atom  41C    basis set group =>   1
Atom  42C    basis set group =>   1
Atom  43C    basis set group =>   1
Atom  44C    basis set group =>   1
Atom  45C    basis set group =>   1
Atom  46C    basis set group =>   1
Atom  47C    basis set group =>   1
Atom  48C    basis set group =>   1
Atom  49N    basis set group =>   2
Atom  50H    basis set group =>   3
Atom  51H    basis set group =>   3
Atom  52H    basis set group =>   3
Atom  53H    basis set group =>   3
Atom  54Zn   basis set group =>   4
Atom  55C    basis set group =>   1
Atom  56H    basis set group =>   3
Atom  57H    basis set group =>   3
Atom  58C    basis set group =>   1
Atom  59H    basis set group =>   3
Atom  60H    basis set group =>   3
Atom  61C    basis set group =>   1
Atom  62C    basis set group =>   1
Atom  63C    basis set group =>   1
Atom  64C    basis set group =>   1
Atom  65C    basis set group =>   1
Atom  66C    basis set group =>   1
Atom  67C    basis set group =>   1
Atom  68C    basis set group =>   1
Atom  69N    basis set group =>   2
Atom  70N    basis set group =>   2
Atom  71N    basis set group =>   2
Atom  72H    basis set group =>   3
Atom  73H    basis set group =>   3
Atom  74H    basis set group =>   3
Atom  75H    basis set group =>   3
Atom  76C    basis set group =>   1
Atom  77C    basis set group =>   1
Atom  78C    basis set group =>   1
Atom  79C    basis set group =>   1
Atom  80C    basis set group =>   1
Atom  81C    basis set group =>   1
Atom  82C    basis set group =>   1
Atom  83C    basis set group =>   1
Atom  84N    basis set group =>   2
Atom  85N    basis set group =>   2
Atom  86H    basis set group =>   3
Atom  87H    basis set group =>   3
Atom  88C    basis set group =>   1
Atom  89C    basis set group =>   1
Atom  90C    basis set group =>   1
Atom  91C    basis set group =>   1
Atom  92C    basis set group =>   1
Atom  93C    basis set group =>   1
Atom  94C    basis set group =>   1
Atom  95C    basis set group =>   1
Atom  96N    basis set group =>   2
Atom  97N    basis set group =>   2
Atom  98H    basis set group =>   3
Atom  99H    basis set group =>   3
Atom 100H    basis set group =>   3
Atom 101H    basis set group =>   3
Atom 102C    basis set group =>   1
Atom 103C    basis set group =>   1
Atom 104C    basis set group =>   1
Atom 105C    basis set group =>   1
Atom 106C    basis set group =>   1
Atom 107C    basis set group =>   1
Atom 108C    basis set group =>   1
Atom 109C    basis set group =>   1
Atom 110N    basis set group =>   2
Atom 111H    basis set group =>   3
Atom 112H    basis set group =>   3
Atom 113H    basis set group =>   3
Atom 114H    basis set group =>   3
Atom 115Zn   basis set group =>   4
Atom 116C    basis set group =>   1
Atom 117H    basis set group =>   3
Atom 118H    basis set group =>   3
Atom 119C    basis set group =>   1
Atom 120H    basis set group =>   3
Atom 121H    basis set group =>   3
---------------------------------
AUXILIARY/J BASIS SET INFORMATION
---------------------------------
There are 4 groups of distinct atoms

 Group   1 Type C   : 12s5p4d2f1g contracted to 6s4p3d1f1g pattern {711111/2111/211/2/1}
 Group   2 Type N   : 12s5p4d2f1g contracted to 6s4p3d1f1g pattern {711111/2111/211/2/1}
 Group   3 Type H   : 5s2p1d contracted to 3s1p1d pattern {311/2/1}
 Group   4 Type Zn  : 19s5p5d3f3g contracted to 8s5p5d2f3g pattern {121111111/11111/11111/21/111}

Atom   0C    basis set group =>   1
Atom   1C    basis set group =>   1
Atom   2C    basis set group =>   1
Atom   3C    basis set group =>   1
Atom   4C    basis set group =>   1
Atom   5C    basis set group =>   1
Atom   6C    basis set group =>   1
Atom   7C    basis set group =>   1
Atom   8N    basis set group =>   2
Atom   9N    basis set group =>   2
Atom  10N    basis set group =>   2
Atom  11H    basis set group =>   3
Atom  12H    basis set group =>   3
Atom  13H    basis set group =>   3
Atom  14H    basis set group =>   3
Atom  15C    basis set group =>   1
Atom  16C    basis set group =>   1
Atom  17C    basis set group =>   1
Atom  18C    basis set group =>   1
Atom  19C    basis set group =>   1
Atom  20C    basis set group =>   1
Atom  21C    basis set group =>   1
Atom  22C    basis set group =>   1
Atom  23N    basis set group =>   2
Atom  24N    basis set group =>   2
Atom  25H    basis set group =>   3
Atom  26H    basis set group =>   3
Atom  27C    basis set group =>   1
Atom  28C    basis set group =>   1
Atom  29C    basis set group =>   1
Atom  30C    basis set group =>   1
Atom  31C    basis set group =>   1
Atom  32C    basis set group =>   1
Atom  33C    basis set group =>   1
Atom  34C    basis set group =>   1
Atom  35N    basis set group =>   2
Atom  36N    basis set group =>   2
Atom  37H    basis set group =>   3
Atom  38H    basis set group =>   3
Atom  39H    basis set group =>   3
Atom  40H    basis set group =>   3
Atom  41C    basis set group =>   1
Atom  42C    basis set group =>   1
Atom  43C    basis set group =>   1
Atom  44C    basis set group =>   1
Atom  45C    basis set group =>   1
Atom  46C    basis set group =>   1
Atom  47C    basis set group =>   1
Atom  48C    basis set group =>   1
Atom  49N    basis set group =>   2
Atom  50H    basis set group =>   3
Atom  51H    basis set group =>   3
Atom  52H    basis set group =>   3
Atom  53H    basis set group =>   3
Atom  54Zn   basis set group =>   4
Atom  55C    basis set group =>   1
Atom  56H    basis set group =>   3
Atom  57H    basis set group =>   3
Atom  58C    basis set group =>   1
Atom  59H    basis set group =>   3
Atom  60H    basis set group =>   3
Atom  61C    basis set group =>   1
Atom  62C    basis set group =>   1
Atom  63C    basis set group =>   1
Atom  64C    basis set group =>   1
Atom  65C    basis set group =>   1
Atom  66C    basis set group =>   1
Atom  67C    basis set group =>   1
Atom  68C    basis set group =>   1
Atom  69N    basis set group =>   2
Atom  70N    basis set group =>   2
Atom  71N    basis set group =>   2
Atom  72H    basis set group =>   3
Atom  73H    basis set group =>   3
Atom  74H    basis set group =>   3
Atom  75H    basis set group =>   3
Atom  76C    basis set group =>   1
Atom  77C    basis set group =>   1
Atom  78C    basis set group =>   1
Atom  79C    basis set group =>   1
Atom  80C    basis set group =>   1
Atom  81C    basis set group =>   1
Atom  82C    basis set group =>   1
Atom  83C    basis set group =>   1
Atom  84N    basis set group =>   2
Atom  85N    basis set group =>   2
Atom  86H    basis set group =>   3
Atom  87H    basis set group =>   3
Atom  88C    basis set group =>   1
Atom  89C    basis set group =>   1
Atom  90C    basis set group =>   1
Atom  91C    basis set group =>   1
Atom  92C    basis set group =>   1
Atom  93C    basis set group =>   1
Atom  94C    basis set group =>   1
Atom  95C    basis set group =>   1
Atom  96N    basis set group =>   2
Atom  97N    basis set group =>   2
Atom  98H    basis set group =>   3
Atom  99H    basis set group =>   3
Atom 100H    basis set group =>   3
Atom 101H    basis set group =>   3
Atom 102C    basis set group =>   1
Atom 103C    basis set group =>   1
Atom 104C    basis set group =>   1
Atom 105C    basis set group =>   1
Atom 106C    basis set group =>   1
Atom 107C    basis set group =>   1
Atom 108C    basis set group =>   1
Atom 109C    basis set group =>   1
Atom 110N    basis set group =>   2
Atom 111H    basis set group =>   3
Atom 112H    basis set group =>   3
Atom 113H    basis set group =>   3
Atom 114H    basis set group =>   3
Atom 115Zn   basis set group =>   4
Atom 116C    basis set group =>   1
Atom 117H    basis set group =>   3
Atom 118H    basis set group =>   3
Atom 119C    basis set group =>   1
Atom 120H    basis set group =>   3
Atom 121H    basis set group =>   3

Checking for AutoStart:
The File: /media/sergey/DATA1/makar/orca/ZnPc-phane/ZnPc-phane.gbw exists
Trying to determine its content:
     ... Fine, the file contains calculation information
     ... Fine, the calculation information was read
     ... Fine, the file contains a basis set
     ... Fine, the basis set was read
     ... Fine, the file contains a geometry
     ... Fine, the geometry was read
     ... Fine, the file contains a set of orbitals
     ... Fine, the orbitals can be read
     => possible old guess file was deleted
     => GBW file was renamed to GES file
     => GES file is set as startup file
     => Guess is set to MORead
     ... now leaving AutoStart



           ************************************************************
           *        Program running with 8 parallel MPI-processes     *
           *              working on a common directory               *
           ************************************************************
------------------------------------------------------------------------------
                           ORCA GTO INTEGRAL CALCULATION
                           -- RI-GTO INTEGRALS CHOSEN --
------------------------------------------------------------------------------

                         BASIS SET STATISTICS AND STARTUP INFO

Gaussian basis set:
 # of primitive gaussian shells          ... 1886
 # of primitive gaussian functions       ... 3754
 # of contracted shells                  ... 1016
 # of contracted basis functions         ... 2328
 Highest angular momentum                ...    3
 Maximum contraction depth               ...    8
Auxiliary gaussian basis set:
 # of primitive gaussian shells          ... 2374
 # of primitive gaussian functions       ... 6670
 # of contracted shells                  ... 1486
 # of contracted aux-basis functions     ... 4690
 Highest angular momentum                ...    4
 Maximum contraction depth               ...   12
Ratio of auxiliary to basis functions    ...  2.01
Integral package used                  ... LIBINT
 One Electron integrals                  ... done
 Ordering auxiliary basis shells         ... done
 Integral threshhold             Thresh  ...  1.000e-10
 Primitive cut-off               TCut    ...  1.000e-11
 Pre-screening matrix                    ... done
 Shell pair data                         ... 
 Ordering of the shell pairs             ... done (   0.035 sec) 190943 of 516636 pairs
 Determination of significant pairs      ... done (   0.002 sec)
 Creation of shell pair data             ... done (   0.024 sec)
 Storage of shell pair data              ... done (   0.042 sec)
 Shell pair data done in (   0.103 sec)
 Computing two index integrals           ... done
 Cholesky decomposition of the V-matrix  ... done


Timings:
 Total evaluation time                   ...   3.979 sec (  0.066 min)
 One electron matrix time                ...   1.367 sec (  0.023 min) = 34.4%
 Schwartz matrix evaluation time         ...   1.286 sec (  0.021 min) = 32.3%
 Two index repulsion integral time       ...   0.304 sec (  0.005 min) =  7.6%
 Cholesky decomposition of V             ...   0.892 sec (  0.015 min) = 22.4%
 Three index repulsion integral time     ...   0.000 sec (  0.000 min) =  0.0%



           ************************************************************
           *        Program running with 8 parallel MPI-processes     *
           *              working on a common directory               *
           ************************************************************
-------------------------------------------------------------------------------
                                 ORCA SCF
-------------------------------------------------------------------------------

------------
SCF SETTINGS
------------
Hamiltonian:
 Density Functional     Method          .... DFT(GTOs)
 Exchange Functional    Exchange        .... WB88
 Correlation Functional Correlation     .... LYP
 Gradients option       PostSCFGGA      .... off
   Density functional embedding theory  .... OFF
 Long-range corrected/Screened/Range-Separated Hybrid DFT is turned on
   Amount of maximum screened exact exchange              ....  1.000000
   Range separation parameter mu (erf(mu*r12)/r12)        ....  0.400000
 RI-approximation to the Coulomb term is turned on
   Number of auxiliary basis functions  .... 4690
   RIJ-COSX (HFX calculated with COS-X)).... on


General Settings:
 Integral files         IntName         .... /media/sergey/DATA1/makar/orca/ZnPc-phane/ZnPc-phane
 Hartree-Fock type      HFTyp           .... RHF
 Total Charge           Charge          ....    0
 Multiplicity           Mult            ....    1
 Number of Electrons    NEL             ....  616
 Basis Dimension        Dim             .... 2328
 Nuclear Repulsion      ENuc            ....  16011.4603976527 Eh

Convergence Acceleration:
 DIIS                   CNVDIIS         .... on
   Start iteration      DIISMaxIt       ....    12
   Startup error        DIISStart       ....  0.200000
   # of expansion vecs  DIISMaxEq       ....     5
   Bias factor          DIISBfac        ....   1.050
   Max. coefficient     DIISMaxC        ....  10.000
 Newton-Raphson         CNVNR           .... off
 SOSCF                  CNVSOSCF        .... off
 Level Shifting         CNVShift        .... on
   Level shift para.    LevelShift      ....    0.2500
   Turn off err/grad.   ShiftErr        ....    0.0010
 Zerner damping         CNVZerner       .... off
 Static damping         CNVDamp         .... on
   Fraction old density DampFac         ....    0.7000
   Max. Damping (<1)    DampMax         ....    0.9800
   Min. Damping (>=0)   DampMin         ....    0.0000
   Turn off err/grad.   DampErr         ....    0.1000
 Fernandez-Rico         CNVRico         .... off

SCF Procedure:
 Maximum # iterations   MaxIter         ....   125
 SCF integral mode      SCFMode         .... Direct
   Integral package                     .... LIBINT
 Reset frequency        DirectResetFreq ....    20
 Integral Threshold     Thresh          ....  1.000e-10 Eh
 Primitive CutOff       TCut            ....  1.000e-11 Eh

Convergence Tolerance:
 Convergence Check Mode ConvCheckMode   .... Total+1el-Energy
 Convergence forced     ConvForced      .... 1
 Energy Change          TolE            ....  1.000e-06 Eh
 1-El. energy change                    ....  1.000e-03 Eh
 DIIS Error             TolErr          ....  1.000e-06


Diagonalization of the overlap matrix:
Smallest eigenvalue                        ... 1.435e-06
Time for diagonalization                   ...    0.555 sec
Threshold for overlap eigenvalues          ... 1.000e-08
Number of eigenvalues below threshold      ... 0
Time for construction of square roots      ...    0.607 sec
Total time needed                          ...    1.177 sec

---------------------
INITIAL GUESS: MOREAD
---------------------
Guess MOs are being read from file: /media/sergey/DATA1/makar/orca/ZnPc-phane/ZnPc-phane.ges
Input Geometry matches current geometry (good)
Input basis set matches current basis set (good)
MOs were renormalized
MOs were reorthogonalized (Cholesky)
                      ------------------
                      INITIAL GUESS DONE (   3.8 sec)
                      ------------------
-------------------
DFT GRID GENERATION
-------------------

General Integration Accuracy     IntAcc      ...  5.010
Radial Grid Type                 RadialGrid  ... Gauss-Chebyshev
Angular Grid (max. acc.)         AngularGrid ... Lebedev-434
Angular grid pruning method      GridPruning ... 3 (G Style)
Weight generation scheme         WeightScheme... Becke
Basis function cutoff            BFCut       ...    1.0000e-10
Integration weight cutoff        WCut        ...    1.0000e-14
Grids for H and He will be reduced by one unit

# of grid points (after initial pruning)     ... 1169788 (   0.1 sec)
# of grid points (after weights+screening)   ... 975860 (   6.1 sec)
nearest neighbour list constructed           ...    0.0 sec
Grid point re-assignment to atoms done       ...    0.2 sec
Grid point division into batches done        ...    4.2 sec
Reduced shell lists constructed in    5.7 sec

Total number of grid points                  ...   975860
Total number of batches                      ...    15312
Average number of points per batch           ...       63
Average number of grid points per atom       ...     7999
Average number of shells per batch           ...   154.39 (15.20%)
Average number of basis functions per batch  ...   349.52 (15.01%)
Average number of large shells per batch     ...    86.73 (56.18%)
Average number of large basis fcns per batch ...   203.25 (58.15%)
Maximum spatial batch extension              ...  24.44, 16.11, 15.61 au
Average spatial batch extension              ...   0.24,  0.20,  0.20 au

Time for grid setup =   12.073 sec

--------------------
COSX GRID GENERATION
--------------------

General Integration Accuracy     IntAcc      ...  3.670
Radial Grid Type                 RadialGrid  ... Gauss-Chebyshev
Angular Grid (max. acc.)         AngularGrid ... Lebedev-50
Angular grid pruning method      GridPruning ... 3 (G Style)
Weight generation scheme         WeightScheme... Becke
Basis function cutoff            BFCut       ...    1.0000e-10
Integration weight cutoff        WCut        ...    1.0000e-14
Grids for H and He will be reduced by one unit

# of grid points (after initial pruning)     ...  77460 (   0.0 sec)
# of grid points (after weights+screening)   ...  67954 (   0.4 sec)
nearest neighbour list constructed           ...    0.0 sec
Grid point re-assignment to atoms done       ...    0.0 sec
Grid point division into batches done        ...    0.0 sec
Reduced shell lists constructed in    0.2 sec

Total number of grid points                  ...    67954
Total number of batches                      ...     1116
Average number of points per batch           ...       60
Average number of grid points per atom       ...      557
Average number of shells per batch           ...   195.37 (19.23%)
Average number of basis functions per batch  ...   445.21 (19.12%)
Average number of large shells per batch     ...   109.08 (55.83%)
Average number of large basis fcns per batch ...   257.50 (57.84%)
Maximum spatial batch extension              ...  23.38, 16.59, 19.59 au
Average spatial batch extension              ...   0.67,  0.43,  0.42 au

Overlap Fitting                  UseSFitting ... on
Constructing numerical overlap ... done (      0.5 sec)
Inverting numerical overlap    ... done (      0.2 sec)
Obtaining analytic overlap     ... done (      0.0 sec)
Final contraction and storage  ... done (      0.6 sec)


General Integration Accuracy     IntAcc      ...  4.010
Radial Grid Type                 RadialGrid  ... Gauss-Chebyshev
Angular Grid (max. acc.)         AngularGrid ... Lebedev-50
Angular grid pruning method      GridPruning ... 3 (G Style)
Weight generation scheme         WeightScheme... Becke
Basis function cutoff            BFCut       ...    1.0000e-10
Integration weight cutoff        WCut        ...    1.0000e-14
Grids for H and He will be reduced by one unit

# of grid points (after initial pruning)     ...  94108 (   0.0 sec)
# of grid points (after weights+screening)   ...  82442 (   0.5 sec)
nearest neighbour list constructed           ...    0.0 sec
Grid point re-assignment to atoms done       ...    0.0 sec
Grid point division into batches done        ...    0.0 sec
Reduced shell lists constructed in    0.2 sec

Total number of grid points                  ...    82442
Total number of batches                      ...     1340
Average number of points per batch           ...       61
Average number of grid points per atom       ...      676
Average number of shells per batch           ...   190.41 (18.74%)
Average number of basis functions per batch  ...   433.82 (18.63%)
Average number of large shells per batch     ...   106.11 (55.73%)
Average number of large basis fcns per batch ...   249.80 (57.58%)
Maximum spatial batch extension              ...  24.75, 17.39, 20.99 au
Average spatial batch extension              ...   0.62,  0.43,  0.41 au

Overlap Fitting                  UseSFitting ... on
Constructing numerical overlap ... done (      0.6 sec)
Inverting numerical overlap    ... done (      0.2 sec)
Obtaining analytic overlap     ... done (      0.0 sec)
Final contraction and storage  ... done (      0.6 sec)

Time for X-Grid setup             =    4.148 sec
--------------
SCF ITERATIONS
--------------
ITER       Energy         Delta-E        Max-DP      RMS-DP      [F,P]     Damp
               ***  Starting incremental Fock matrix formation  ***
  0  -7039.1211904475   0.000000000000 0.01611062  0.00004761  0.0000031 0.7000
                 **** Energy Check signals convergence ****

               *****************************************************
               *                     SUCCESS                       *
               *           SCF CONVERGED AFTER   1 CYCLES          *
               *****************************************************


----------------
TOTAL SCF ENERGY
----------------

Total Energy       :        -7039.12119026 Eh         -191544.22551 eV

Components:
Nuclear Repulsion  :        16011.46039765 Eh          435693.98767 eV
Electronic Energy  :       -23050.58158791 Eh         -627238.21318 eV
One Electron Energy:       -41625.82417489 Eh        -1132696.26096 eV
Two Electron Energy:        18575.24258697 Eh          505458.04778 eV

Virial components:
Potential Energy   :       -14059.51110147 Eh         -382578.74700 eV
Kinetic Energy     :         7020.38991121 Eh          191034.52149 eV
Virial Ratio       :            2.00266813


DFT components:
N(Alpha)           :      307.999642117378 electrons
N(Beta)            :      307.999642117378 electrons
N(Total)           :      615.999284234756 electrons
E(XC)              :     -502.209661904944 Eh       
DFET-embed. en.    :        0.000000000000 Eh       

---------------
SCF CONVERGENCE
---------------

  Last Energy change         ...    1.8799e-07  Tolerance :   1.0000e-06
  Last MAX-Density change    ...    7.2273e-03  Tolerance :   1.0000e-05
  Last RMS-Density change    ...    2.1227e-05  Tolerance :   1.0000e-06
  Last DIIS Error            ...    1.4701e-06  Tolerance :   1.0000e-06

             **** THE GBW FILE WAS UPDATED (/media/sergey/DATA1/makar/orca/ZnPc-phane/ZnPc-phane.gbw) ****
             **** DENSITY FILE WAS UPDATED (/media/sergey/DATA1/makar/orca/ZnPc-phane/ZnPc-phane.scfp) ****
             **** ENERGY FILE WAS UPDATED (/media/sergey/DATA1/makar/orca/ZnPc-phane/ZnPc-phane.en.tmp) ****
             **** THE GBW FILE WAS UPDATED (/media/sergey/DATA1/makar/orca/ZnPc-phane/ZnPc-phane.gbw) ****
             **** DENSITY FILE WAS UPDATED (/media/sergey/DATA1/makar/orca/ZnPc-phane/ZnPc-phane.scfp) ****
----------------
ORBITAL ENERGIES
----------------

  NO   OCC          E(Eh)            E(eV) 
   0   2.0000    -346.000420     -9415.1501 
   1   2.0000    -346.000420     -9415.1501 
   2   2.0000     -41.864088     -1139.1797 
   3   2.0000     -41.864088     -1139.1797 
   4   2.0000     -36.947923     -1005.4041 
   5   2.0000     -36.947923     -1005.4041 
   6   2.0000     -36.937855     -1005.1301 
   7   2.0000     -36.937855     -1005.1301 
   8   2.0000     -36.937815     -1005.1291 
   9   2.0000     -36.937815     -1005.1290 
  10   2.0000     -14.228620      -387.1804 
  11   2.0000     -14.228619      -387.1804 
  12   2.0000     -14.228603      -387.1800 
  13   2.0000     -14.228603      -387.1800 
  14   2.0000     -14.227927      -387.1616 
  15   2.0000     -14.227926      -387.1616 
  16   2.0000     -14.226133      -387.1128 
  17   2.0000     -14.226130      -387.1127 
  18   2.0000     -14.219181      -386.9236 
  19   2.0000     -14.219180      -386.9236 
  20   2.0000     -14.219175      -386.9234 
  21   2.0000     -14.219174      -386.9234 
  22   2.0000     -14.218265      -386.8987 
  23   2.0000     -14.218265      -386.8987 
  24   2.0000     -14.218261      -386.8986 
  25   2.0000     -14.218259      -386.8985 
  26   2.0000     -10.195465      -277.4327 
  27   2.0000     -10.195464      -277.4327 
  28   2.0000     -10.195459      -277.4325 
  29   2.0000     -10.195458      -277.4325 
  30   2.0000     -10.194688      -277.4116 
  31   2.0000     -10.194686      -277.4115 
  32   2.0000     -10.194682      -277.4114 
  33   2.0000     -10.194681      -277.4114 
  34   2.0000     -10.194232      -277.3992 
  35   2.0000     -10.194230      -277.3991 
  36   2.0000     -10.194167      -277.3974 
  37   2.0000     -10.194165      -277.3973 
  38   2.0000     -10.193874      -277.3894 
  39   2.0000     -10.193869      -277.3893 
  40   2.0000     -10.193814      -277.3878 
  41   2.0000     -10.193808      -277.3876 
  42   2.0000     -10.126091      -275.5449 
  43   2.0000     -10.126089      -275.5449 
  44   2.0000     -10.126088      -275.5449 
  45   2.0000     -10.126087      -275.5448 
  46   2.0000     -10.125519      -275.5294 
  47   2.0000     -10.125519      -275.5294 
  48   2.0000     -10.125518      -275.5293 
  49   2.0000     -10.125517      -275.5293 
  50   2.0000     -10.124890      -275.5123 
  51   2.0000     -10.124889      -275.5122 
  52   2.0000     -10.124888      -275.5122 
  53   2.0000     -10.124887      -275.5122 
  54   2.0000     -10.124851      -275.5112 
  55   2.0000     -10.124851      -275.5112 
  56   2.0000     -10.124507      -275.5018 
  57   2.0000     -10.124506      -275.5018 
  58   2.0000     -10.124173      -275.4928 
  59   2.0000     -10.124173      -275.4928 
  60   2.0000     -10.124172      -275.4927 
  61   2.0000     -10.124171      -275.4927 
  62   2.0000     -10.123296      -275.4689 
  63   2.0000     -10.123296      -275.4689 
  64   2.0000     -10.123267      -275.4681 
  65   2.0000     -10.123266      -275.4681 
  66   2.0000     -10.123167      -275.4654 
  67   2.0000     -10.123146      -275.4648 
  68   2.0000     -10.123119      -275.4641 
  69   2.0000     -10.123087      -275.4632 
  70   2.0000     -10.122728      -275.4534 
  71   2.0000     -10.122727      -275.4534 
  72   2.0000     -10.122727      -275.4534 
  73   2.0000     -10.122727      -275.4534 
  74   2.0000     -10.122288      -275.4415 
  75   2.0000     -10.122287      -275.4414 
  76   2.0000     -10.122287      -275.4414 
  77   2.0000     -10.122286      -275.4414 
  78   2.0000     -10.121619      -275.4233 
  79   2.0000     -10.121618      -275.4232 
  80   2.0000     -10.121229      -275.4126 
  81   2.0000     -10.121228      -275.4126 
  82   2.0000     -10.118961      -275.3509 
  83   2.0000     -10.118953      -275.3507 
  84   2.0000     -10.118606      -275.3413 
  85   2.0000     -10.118605      -275.3412 
  86   2.0000     -10.110444      -275.1192 
  87   2.0000     -10.110442      -275.1191 
  88   2.0000     -10.110009      -275.1073 
  89   2.0000     -10.110008      -275.1073 
  90   2.0000     -10.107748      -275.0458 
  91   2.0000     -10.107738      -275.0455 
  92   2.0000     -10.107682      -275.0440 
  93   2.0000     -10.107676      -275.0438 
  94   2.0000      -4.815987      -131.0497 
  95   2.0000      -4.815986      -131.0497 
  96   2.0000      -3.261995       -88.7634 
  97   2.0000      -3.261995       -88.7634 
  98   2.0000      -3.247581       -88.3712 
  99   2.0000      -3.247580       -88.3712 
 100   2.0000      -3.247537       -88.3700 
 101   2.0000      -3.247537       -88.3700 
 102   2.0000      -1.160245       -31.5719 
 103   2.0000      -1.160156       -31.5694 
 104   2.0000      -1.145537       -31.1716 
 105   2.0000      -1.145530       -31.1715 
 106   2.0000      -1.144574       -31.1454 
 107   2.0000      -1.144306       -31.1382 
 108   2.0000      -1.116041       -30.3690 
 109   2.0000      -1.115736       -30.3607 
 110   2.0000      -1.093164       -29.7465 
 111   2.0000      -1.093085       -29.7444 
 112   2.0000      -1.050583       -28.5878 
 113   2.0000      -1.050369       -28.5820 
 114   2.0000      -1.050279       -28.5796 
 115   2.0000      -1.049608       -28.5613 
 116   2.0000      -1.022230       -27.8163 
 117   2.0000      -1.017806       -27.6959 
 118   2.0000      -1.015018       -27.6200 
 119   2.0000      -1.007487       -27.4151 
 120   2.0000      -1.007452       -27.4142 
 121   2.0000      -1.006557       -27.3898 
 122   2.0000      -1.006554       -27.3897 
 123   2.0000      -1.005629       -27.3646 
 124   2.0000      -1.005604       -27.3639 
 125   2.0000      -0.998201       -27.1624 
 126   2.0000      -0.965908       -26.2837 
 127   2.0000      -0.923865       -25.1396 
 128   2.0000      -0.919935       -25.0327 
 129   2.0000      -0.910861       -24.7858 
 130   2.0000      -0.910794       -24.7840 
 131   2.0000      -0.910086       -24.7647 
 132   2.0000      -0.908050       -24.7093 
 133   2.0000      -0.907321       -24.6895 
 134   2.0000      -0.907130       -24.6843 
 135   2.0000      -0.906406       -24.6646 
 136   2.0000      -0.905692       -24.6451 
 137   2.0000      -0.904210       -24.6048 
 138   2.0000      -0.903103       -24.5747 
 139   2.0000      -0.902501       -24.5583 
 140   2.0000      -0.902181       -24.5496 
 141   2.0000      -0.901840       -24.5403 
 142   2.0000      -0.893786       -24.3212 
 143   2.0000      -0.870519       -23.6880 
 144   2.0000      -0.866911       -23.5898 
 145   2.0000      -0.844008       -22.9666 
 146   2.0000      -0.838713       -22.8225 
 147   2.0000      -0.836440       -22.7607 
 148   2.0000      -0.836240       -22.7552 
 149   2.0000      -0.819338       -22.2953 
 150   2.0000      -0.806251       -21.9392 
 151   2.0000      -0.780864       -21.2484 
 152   2.0000      -0.780631       -21.2421 
 153   2.0000      -0.777980       -21.1699 
 154   2.0000      -0.777166       -21.1477 
 155   2.0000      -0.772183       -21.0122 
 156   2.0000      -0.771595       -20.9962 
 157   2.0000      -0.766245       -20.8506 
 158   2.0000      -0.766159       -20.8482 
 159   2.0000      -0.764332       -20.7985 
 160   2.0000      -0.761942       -20.7335 
 161   2.0000      -0.752512       -20.4769 
 162   2.0000      -0.742665       -20.2089 
 163   2.0000      -0.738445       -20.0941 
 164   2.0000      -0.734883       -19.9972 
 165   2.0000      -0.734262       -19.9803 
 166   2.0000      -0.733121       -19.9492 
 167   2.0000      -0.732508       -19.9326 
 168   2.0000      -0.728534       -19.8244 
 169   2.0000      -0.726539       -19.7701 
 170   2.0000      -0.724371       -19.7111 
 171   2.0000      -0.722242       -19.6532 
 172   2.0000      -0.694235       -18.8911 
 173   2.0000      -0.693402       -18.8684 
 174   2.0000      -0.686849       -18.6901 
 175   2.0000      -0.686821       -18.6894 
 176   2.0000      -0.680209       -18.5094 
 177   2.0000      -0.679076       -18.4786 
 178   2.0000      -0.671803       -18.2807 
 179   2.0000      -0.671546       -18.2737 
 180   2.0000      -0.669682       -18.2230 
 181   2.0000      -0.669343       -18.2138 
 182   2.0000      -0.655205       -17.8290 
 183   2.0000      -0.636264       -17.3136 
 184   2.0000      -0.633934       -17.2502 
 185   2.0000      -0.633267       -17.2321 
 186   2.0000      -0.633032       -17.2257 
 187   2.0000      -0.632962       -17.2238 
 188   2.0000      -0.632642       -17.2151 
 189   2.0000      -0.631721       -17.1900 
 190   2.0000      -0.628007       -17.0889 
 191   2.0000      -0.621861       -16.9217 
 192   2.0000      -0.619425       -16.8554 
 193   2.0000      -0.616915       -16.7871 
 194   2.0000      -0.616898       -16.7867 
 195   2.0000      -0.615868       -16.7586 
 196   2.0000      -0.614956       -16.7338 
 197   2.0000      -0.613876       -16.7044 
 198   2.0000      -0.611962       -16.6523 
 199   2.0000      -0.611907       -16.6508 
 200   2.0000      -0.610009       -16.5992 
 201   2.0000      -0.608137       -16.5482 
 202   2.0000      -0.599067       -16.3014 
 203   2.0000      -0.599056       -16.3011 
[...]
   307a -> 316a  :     0.108140 
   307a -> 317a  :     0.123632 
   307a -> 321a  :     0.019539 
   307a -> 324a  :     0.013698 

STATE 26:  E=   0.159049 au      4.328 eV    34907.3 cm**-1
   297a -> 309a  :     0.011678 
   298a -> 310a  :     0.012436 
   304a -> 310a  :     0.012512 
   306a -> 316a  :     0.196391 
   306a -> 317a  :     0.111455 
   306a -> 321a  :     0.010388 
   306a -> 323a  :     0.011936 
   306a -> 324a  :     0.024069 
   307a -> 314a  :     0.320036 
   307a -> 315a  :     0.164434 
   307a -> 322a  :     0.012272 
   307a -> 325a  :     0.024736 

STATE 27:  E=   0.159449 au      4.339 eV    34995.1 cm**-1
   288a -> 311a  :     0.024563 
   289a -> 308a  :     0.030382 
   299a -> 308a  :     0.032680 
   300a -> 311a  :     0.022078 
   301a -> 308a  :     0.235306 
   302a -> 311a  :     0.205959 
   305a -> 308a  :     0.030099 
   306a -> 309a  :     0.014653 
   306a -> 314a  :     0.059026 
   306a -> 315a  :     0.072159 
   307a -> 316a  :     0.106633 
   307a -> 317a  :     0.020745 

STATE 28:  E=   0.161016 au      4.381 eV    35338.9 cm**-1
   288a -> 308a  :     0.032416 
   289a -> 311a  :     0.046528 
   290a -> 308a  :     0.014454 
   299a -> 311a  :     0.025264 
   300a -> 308a  :     0.025364 
   301a -> 311a  :     0.232120 
   302a -> 308a  :     0.380700 
   305a -> 311a  :     0.089239 
   306a -> 310a  :     0.023390 
   307a -> 309a  :     0.018563 

STATE 29:  E=   0.161726 au      4.401 eV    35494.9 cm**-1
   286a -> 308a  :     0.022119 
   287a -> 311a  :     0.026838 
   297a -> 312a  :     0.019938 
   298a -> 313a  :     0.017087 
   299a -> 310a  :     0.066569 
   300a -> 309a  :     0.078318 
   301a -> 310a  :     0.206578 
   302a -> 309a  :     0.226301 
   303a -> 308a  :     0.055493 
   304a -> 311a  :     0.024162 
   305a -> 310a  :     0.060804 
   305a -> 321a  :     0.012796 
   306a -> 311a  :     0.013712 
   307a -> 312a  :     0.014398 

STATE 30:  E=   0.163586 au      4.451 eV    35903.0 cm**-1
   284a -> 310a  :     0.052800 
   286a -> 310a  :     0.096035 
   287a -> 309a  :     0.153944 
   297a -> 310a  :     0.061905 
   298a -> 309a  :     0.056447 
   303a -> 310a  :     0.027650 
   304a -> 309a  :     0.071512 
   304a -> 314a  :     0.021286 
   306a -> 314a  :     0.034676 
   306a -> 315a  :     0.117721 
   307a -> 316a  :     0.123274 
   307a -> 317a  :     0.014097 
   307a -> 321a  :     0.014195 

STATE 31:  E=   0.163647 au      4.453 eV    35916.4 cm**-1
   292a -> 308a  :     0.011034 
   297a -> 313a  :     0.011759 
   298a -> 312a  :     0.012186 
   299a -> 309a  :     0.052376 
   300a -> 310a  :     0.059410 
   301a -> 309a  :     0.240293 
   302a -> 310a  :     0.277600 
   304a -> 308a  :     0.015892 
   305a -> 309a  :     0.135987 
   305a -> 314a  :     0.015595 
   306a -> 308a  :     0.013720 
   306a -> 312a  :     0.017859 
   307a -> 311a  :     0.017098 
   307a -> 313a  :     0.013953 

STATE 32:  E=   0.164048 au      4.464 eV    36004.4 cm**-1
   280a -> 313a  :     0.017865 
   283a -> 312a  :     0.021462 
   284a -> 309a  :     0.116595 
   285a -> 310a  :     0.013214 
   286a -> 309a  :     0.279777 
   287a -> 310a  :     0.399094 
   303a -> 309a  :     0.025632 
   304a -> 310a  :     0.021411 

STATE 33:  E=   0.164084 au      4.465 eV    36012.2 cm**-1
   281a -> 313a  :     0.019805 
   282a -> 312a  :     0.021116 
   284a -> 311a  :     0.105548 
   285a -> 308a  :     0.014099 
   286a -> 311a  :     0.267126 
   287a -> 308a  :     0.468198 

STATE 34:  E=   0.164346 au      4.472 eV    36069.9 cm**-1
   280a -> 312a  :     0.013288 
   284a -> 310a  :     0.060523 
   286a -> 310a  :     0.171180 
   287a -> 309a  :     0.239340 
   297a -> 310a  :     0.015137 
   298a -> 309a  :     0.018252 
   306a -> 314a  :     0.079869 
   306a -> 315a  :     0.104967 
   307a -> 316a  :     0.095894 
   307a -> 317a  :     0.057223 
   307a -> 321a  :     0.012515 

STATE 35:  E=   0.164623 au      4.480 eV    36130.7 cm**-1
   281a -> 312a  :     0.019541 
   282a -> 313a  :     0.018262 
   284a -> 308a  :     0.121486 
   286a -> 308a  :     0.305358 
   287a -> 311a  :     0.349422 
   304a -> 311a  :     0.015579 
   305a -> 310a  :     0.015993 

STATE 36:  E=   0.164877 au      4.487 eV    36186.3 cm**-1
   297a -> 309a  :     0.036437 
   298a -> 310a  :     0.036180 
   300a -> 308a  :     0.012269 
   305a -> 311a  :     0.013294 
   306a -> 316a  :     0.165835 
   306a -> 317a  :     0.127407 
   307a -> 314a  :     0.231701 
   307a -> 315a  :     0.278732 

STATE 37:  E=   0.168101 au      4.574 eV    36893.8 cm**-1
   286a -> 310a  :     0.037587 
   287a -> 309a  :     0.035596 
   297a -> 310a  :     0.010970 
   298a -> 309a  :     0.010017 
   299a -> 308a  :     0.010127 
   303a -> 310a  :     0.083823 
   304a -> 309a  :     0.351657 
   304a -> 314a  :     0.031426 
   306a -> 314a  :     0.037869 
   306a -> 315a  :     0.020818 
   306a -> 318a  :     0.064206 
   307a -> 316a  :     0.012918 
   307a -> 317a  :     0.135435 

STATE 38:  E=   0.168664 au      4.590 eV    37017.4 cm**-1
   288a -> 310a  :     0.104760 
   289a -> 309a  :     0.088421 
   299a -> 309a  :     0.026094 
   300a -> 310a  :     0.013542 
   301a -> 309a  :     0.115589 
   302a -> 310a  :     0.055495 
   304a -> 308a  :     0.049245 
   305a -> 309a  :     0.366925 
   305a -> 314a  :     0.058247 

STATE 39:  E=   0.170224 au      4.632 eV    37359.8 cm**-1
   286a -> 309a  :     0.032733 
   287a -> 310a  :     0.024943 
   297a -> 309a  :     0.031027 
   298a -> 310a  :     0.026344 
   303a -> 309a  :     0.170884 
   304a -> 310a  :     0.445895 
   306a -> 317a  :     0.021055 
   306a -> 321a  :     0.011519 
   307a -> 318a  :     0.042202 

STATE 40:  E=   0.172473 au      4.693 eV    37853.4 cm**-1
   288a -> 309a  :     0.078604 
   289a -> 310a  :     0.064332 
   290a -> 309a  :     0.013052 
   291a -> 308a  :     0.010162 
   292a -> 311a  :     0.011533 
   295a -> 310a  :     0.023074 
   296a -> 309a  :     0.043599 
   299a -> 310a  :     0.030906 
   300a -> 309a  :     0.015886 
   301a -> 310a  :     0.074581 
   302a -> 309a  :     0.024702 
   303a -> 308a  :     0.022173 
   304a -> 311a  :     0.015923 
   305a -> 310a  :     0.398887 
   307a -> 312a  :     0.011472 


-------------------------
TD-DFT-EXCITATION SPECTRA
-------------------------

Center of mass = ( -0.0000,  0.0000, -0.0000)
Calculating the Dipole integrals                  ... done
Transforming integrals                            ... done
Calculating the Linear Momentum integrals         ... done
Transforming integrals                            ... done
Calculating angular momentum integrals            ... done
Transforming integrals                            ... done

-----------------------------------------------------------------------------
         ABSORPTION SPECTRUM VIA TRANSITION ELECTRIC DIPOLE MOMENTS
-----------------------------------------------------------------------------
State   Energy    Wavelength  fosc         T2        TX        TY        TZ  
        (cm-1)      (nm)                 (au**2)    (au)      (au)      (au) 
-----------------------------------------------------------------------------
   1   13445.4    743.8   1.275908965  31.24085   0.71754   5.54310  -0.00022
   2   14216.0    703.4   0.000000681   0.00002  -0.00014  -0.00100   0.00384
   3   14518.0    688.8   0.833225696  18.89438   0.00004   0.00030   4.34677
   4   14726.3    679.1   0.000000392   0.00001   0.00015   0.00097   0.00280
   5   26149.4    382.4   0.000000007   0.00000   0.00009  -0.00027  -0.00003
   6   26576.6    376.3   0.031405889   0.38903  -0.20861   0.58781  -0.00003
   7   27862.3    358.9   0.000000003   0.00000  -0.00004   0.00004   0.00019
   8   27898.5    358.4   0.002286976   0.02699  -0.00000  -0.00001  -0.16428
   9   30026.4    333.0   0.000000005   0.00000   0.00001  -0.00011  -0.00021
  10   30811.2    324.6   0.001245580   0.01331  -0.00000  -0.00021   0.11536
  11   30922.7    323.4   0.000000009   0.00000   0.00002   0.00000   0.00030
  12   30975.2    322.8   0.005637976   0.05992   0.03229   0.24265  -0.00005
  13   30981.2    322.8   0.000001085   0.00001  -0.00046  -0.00336   0.00008
  14   31104.3    321.5   0.000000011   0.00000   0.00002   0.00021  -0.00028
  15   31864.1    313.8   0.147000767   1.51877   0.06552   1.23064   0.00012
  16   32093.0    311.6   0.000609751   0.00625   0.00000   0.00010   0.07909
  17   33581.5    297.8   0.000004043   0.00004   0.00092   0.00613   0.00113
  18   33625.1    297.4   0.001255401   0.01229  -0.00014  -0.00095   0.11086
  19   33633.6    297.3   0.000001660   0.00002  -0.00005  -0.00036   0.00401
  20   33933.6    294.7   1.287289262  12.48883   0.51727   3.49589   0.00076
  21   33983.1    294.3   0.000033740   0.00033  -0.00180  -0.01240  -0.01303
  22   34014.0    294.0   0.090329456   0.87427   0.00036   0.00255  -0.93502
  23   34154.6    292.8   0.001137476   0.01096  -0.01989   0.10280   0.00016
  24   34188.0    292.5   0.000000282   0.00000  -0.00009  -0.00164   0.00004
  25   34674.5    288.4   0.000000105   0.00000   0.00003   0.00010   0.00099
  26   34907.3    286.5   0.002728496   0.02573  -0.00004  -0.00008   0.16041
  27   34995.1    285.8   0.000001267   0.00001  -0.00005  -0.00055  -0.00341
  28   35338.9    283.0   1.728702018  16.10435  -0.00022  -0.00154   4.01302
  29   35494.9    281.7   1.199267253  11.12311  -0.47917  -3.30053  -0.00227
  30   35903.0    278.5   0.000000034   0.00000  -0.00010  -0.00048  -0.00026
  31   35916.4    278.4   0.000000105   0.00000   0.00008   0.00087   0.00044
  32   36004.4    277.7   0.009108941   0.08329   0.00011   0.00112  -0.28860
  33   36012.2    277.7   0.000006617   0.00006  -0.00012  -0.00074   0.00774
  34   36069.9    277.2   0.000000212   0.00000   0.00025   0.00135  -0.00023
  35   36130.7    276.8   0.045994896   0.41909  -0.10863  -0.63819   0.00197
  36   36186.3    276.3   0.000002950   0.00003   0.00011   0.00052  -0.00515
  37   36893.8    271.0   0.000000012   0.00000   0.00005   0.00023  -0.00023
  38   37017.4    270.1   0.000000034   0.00000   0.00003   0.00045  -0.00032
  39   37359.8    267.7   0.006764944   0.05961   0.00000  -0.00006   0.24416
  40   37853.4    264.2   0.001021864   0.00889   0.06917  -0.06406  -0.00011

-----------------------------------------------------------------------------
         ABSORPTION SPECTRUM VIA TRANSITION VELOCITY DIPOLE MOMENTS
-----------------------------------------------------------------------------
State   Energy    Wavelength   fosc        P2         PX        PY        PZ  
        (cm-1)      (nm)                 (au**2)     (au)      (au)      (au) 
-----------------------------------------------------------------------------
   1   13445.4    743.8   1.279935593   0.11762  -0.04422  -0.34009   0.00002
   2   14216.0    703.4   0.000000745   0.00000   0.00000   0.00005  -0.00026
   3   14518.0    688.8   0.839826489   0.08333   0.00000  -0.00001  -0.28867
   4   14726.3    679.1   0.000000337   0.00000  -0.00001  -0.00006  -0.00017
   5   26149.4    382.4   0.000000007   0.00000  -0.00000   0.00004  -0.00001
   6   26576.6    376.3   0.030969957   0.00563   0.02544  -0.07056   0.00000
   7   27862.3    358.9   0.000000004   0.00000  -0.00000   0.00001  -0.00003
   8   27898.5    358.4   0.002233827   0.00043   0.00001  -0.00001   0.02064
   9   30026.4    333.0   0.000000014   0.00000  -0.00000   0.00004   0.00003
  10   30811.2    324.6   0.001308764   0.00028  -0.00000   0.00003  -0.01660
  11   30922.7    323.4   0.000000018   0.00000   0.00001   0.00000  -0.00006
  12   30975.2    322.8   0.005501596   0.00116  -0.00450  -0.03383   0.00001
  13   30981.2    322.8   0.000001097   0.00000   0.00006   0.00048  -0.00000
  14   31104.3    321.5   0.000000020   0.00000  -0.00001  -0.00005   0.00005
  15   31864.1    313.8   0.144946503   0.03157  -0.00950  -0.17741  -0.00002
  16   32093.0    311.6   0.000636141   0.00014   0.00000  -0.00001  -0.01181
  17   33581.5    297.8   0.000004133   0.00000  -0.00015  -0.00095  -0.00017
  18   33625.1    297.4   0.001163691   0.00027   0.00002   0.00015  -0.01635
  19   33633.6    297.3   0.000001584   0.00000   0.00002   0.00005  -0.00060
  20   33933.6    294.7   1.274271414   0.29553  -0.07965  -0.53776  -0.00011
  21   33983.1    294.3   0.000032942   0.00001   0.00028   0.00189   0.00200
  22   34014.0    294.0   0.088392422   0.02055  -0.00006  -0.00039   0.14335
  23   34154.6    292.8   0.000994186   0.00023   0.00341  -0.01485  -0.00002
  24   34188.0    292.5   0.000000278   0.00000   0.00001   0.00025  -0.00004
  25   34674.5    288.4   0.000000116   0.00000  -0.00001  -0.00003  -0.00016
  26   34907.3    286.5   0.002444128   0.00058   0.00000   0.00002  -0.02415
  27   34995.1    285.8   0.000001361   0.00000   0.00002   0.00009   0.00056
  28   35338.9    283.0   1.718548705   0.41507   0.00003   0.00025  -0.64426
  29   35494.9    281.7   1.192806346   0.28936   0.07748   0.53231   0.00038
  30   35903.0    278.5   0.000000035   0.00000   0.00003   0.00007   0.00005
  31   35916.4    278.4   0.000000105   0.00000  -0.00003  -0.00015  -0.00006
  32   36004.4    277.7   0.009013125   0.00222  -0.00002  -0.00017   0.04709
  33   36012.2    277.7   0.000006693   0.00000   0.00002   0.00011  -0.00128
  34   36069.9    277.2   0.000000240   0.00000  -0.00004  -0.00024   0.00003
  35   36130.7    276.8   0.045596659   0.01126   0.01835   0.10451  -0.00036
  36   36186.3    276.3   0.000000040   0.00000  -0.00002  -0.00009  -0.00005
  37   36893.8    271.0   0.000000012   0.00000   0.00002  -0.00003   0.00004
  38   37017.4    270.1   0.000000041   0.00000   0.00000  -0.00007   0.00007
  39   37359.8    267.7   0.006531574   0.00167   0.00000  -0.00001  -0.04084
  40   37853.4    264.2   0.001066953   0.00028  -0.01177   0.01173   0.00003

-------------------------------------------------------------------
                             CD SPECTRUM
-------------------------------------------------------------------
State  Energy     Wavelength     R         MX        MY        MZ   
       (cm-1)       (nm)     (1e40*cgs)   (au)      (au)      (au)  
-------------------------------------------------------------------
   1   13445.4    743.8     -0.04433  -0.00038   0.00003   0.00001
   2   14216.0    703.4      0.17531  -1.74070  -0.13473  -0.00007
   3   14518.0    688.8      0.64985   0.00156   0.00015   0.00032
   4   14726.3    679.1     -0.56970   0.00021   0.00000  -0.43230
   5   26149.4    382.4      0.00131   0.00002  -0.00000  -0.09650
   6   26576.6    376.3      0.02031  -0.00004   0.00006  -0.00007
   7   27862.3    358.9      0.00084  -0.03301   0.00901   0.00002
   8   27898.5    358.4     -0.00558  -0.00005   0.00001   0.00007
   9   30026.4    333.0      0.02304   0.14509  -0.44626  -0.00005
  10   30811.2    324.6     -0.00309   0.00034   0.00009  -0.00006
  11   30922.7    323.4     -0.05649  -0.00017  -0.00010  -0.39832
  12   30975.2    322.8      0.01923   0.00028   0.00013  -0.00085
  13   30981.2    322.8     -0.00377   0.00001  -0.00001  -0.10047
  14   31104.3    321.5     -0.01348  -0.20216  -0.11718   0.00041
  15   31864.1    313.8     -0.04977   0.00017  -0.00009  -0.00005
  16   32093.0    311.6      0.00180   0.00013   0.00005   0.00005
  17   33581.5    297.8     -0.48968   0.86548  -0.29957  -0.00005
  18   33625.1    297.4      0.65427  -0.00743   0.00244   0.01253
  19   33633.6    297.3     -0.73723   0.00003   0.00007  -0.38949
  20   33933.6    294.7      1.66651   0.00051   0.00094   0.00015
  21   33983.1    294.3     -0.98590   0.47945   0.09885   0.00008
  22   34014.0    294.0      0.00475  -0.00581  -0.00128  -0.00002
  23   34154.6    292.8      0.00449  -0.00029   0.00003   0.00215
  24   34188.0    292.5      0.00949   0.00036   0.00007   0.49130
  25   34674.5    288.4     -0.05075  -2.13670  -0.38251  -0.00006
  26   34907.3    286.5     -0.00274   0.00435   0.00029  -0.00004
  27   34995.1    285.8     -0.12111   3.61808   0.11337   0.00007
  28   35338.9    283.0      0.01464   0.00367   0.00023   0.00001
  29   35494.9    281.7      0.10147  -0.00006  -0.00006  -0.00017
  30   35903.0    278.5     -0.05522  -0.30774   0.30093   0.01087
  31   35916.4    278.4     -0.17797  -0.00449   0.00366  -0.86604
  32   36004.4    277.7      1.86847  -0.00016  -0.00014  -0.01373
  33   36012.2    277.7     -1.75485   0.00160  -0.00003  -0.48080
  34   36069.9    277.2     -0.18485  -0.28928  -0.23747   0.00098
  35   36130.7    276.8      0.29073  -0.00057  -0.00087   0.00069
  36   36186.3    276.3      0.00052   0.00022   0.00024  -0.00018
  37   36893.8    271.0     -0.01355   0.20223  -0.16996  -0.00011
  38   37017.4    270.1     -0.03992  -0.00008  -0.00001   0.26316
  39   37359.8    267.7      0.01227   0.00005   0.00003   0.00011
  40   37853.4    264.2     -0.02180  -0.00054   0.00014   0.00003

Total run time:    23774.521 sec

           *** ORCA-CIS/TD-DFT FINISHED WITHOUT ERROR ***

-----------------------
CIS/TD-DFT TOTAL ENERGY
-----------------------

    E(SCF)  =  -7039.121190259 Eh
    DE(CIS) =      0.061261575 Eh (Root  1)
    ----------------------------- ---------
    E(tot)  =  -7039.059928684 Eh


-------------------------   --------------------
FINAL SINGLE POINT ENERGY     -7039.059928684180
-------------------------   --------------------


                            ***************************************
                            *     ORCA property calculations      *
                            ***************************************

                                    ---------------------
                                    Active property flags
                                    ---------------------
   (+) Dipole Moment


------------------------------------------------------------------------------
                       ORCA ELECTRIC PROPERTIES CALCULATION
------------------------------------------------------------------------------

Dipole Moment Calculation                       ... on
Quadrupole Moment Calculation                   ... off
Polarizability Calculation                      ... off
GBWName                                         ... /media/sergey/DATA1/makar/orca/ZnPc-phane/ZnPc-phane.gbw
Electron density file                           ... /media/sergey/DATA1/makar/orca/ZnPc-phane/ZnPc-phane.scfp
The origin for moment calculation is the CENTER OF MASS  = (-0.000000, -0.000000 -0.000000)

-------------
DIPOLE MOMENT
-------------
                                X             Y             Z
Electronic contribution:      0.00016      -0.00010       0.00000
Nuclear contribution   :      0.00000       0.00000       0.00000
                        -----------------------------------------
Total Dipole Moment    :      0.00016      -0.00010       0.00000
                        -----------------------------------------
Magnitude (a.u.)       :      0.00019
Magnitude (Debye)      :      0.00047



--------------------
Rotational spectrum 
--------------------
 
Rotational constants in cm-1:     0.001357     0.000362     0.000292 
Rotational constants in MHz :    40.693420    10.848055     8.761715 

 Dipole components along the rotational axes: 
x,y,z [a.u.] :    -0.000102     0.000005    -0.000155 
x,y,z [Debye]:    -0.000259     0.000013    -0.000393 

 

Timings for individual modules:

Sum of individual times         ...    23939.884 sec (= 398.998 min)
GTO integral calculation        ...        4.476 sec (=   0.075 min)   0.0 %
SCF iterations                  ...      160.148 sec (=   2.669 min)   0.7 %
CIS module                      ...    23775.260 sec (= 396.254 min)  99.3 %
                             ****ORCA TERMINATED NORMALLY****
TOTAL RUN TIME: 0 days 6 hours 39 minutes 1 seconds 435 msec
