 Entering Gaussian System, Link 0=g09
 Input=ZnPc-Im2.gjf
 Output=ZnPc-Im2.log
 Initial command:
 /home/sergey/g09/l1.exe "/home/sergey/scratch/Gau-10642.inp" -scrdir="/home/sergey/scratch/"
 Entering Link 1 = /home/sergey/g09/l1.exe PID=     10644.
  
 Copyright (c) 1988,1990,1992,1993,1995,1998,2003,2009,2015,
            Gaussian, Inc.  All Rights Reserved.
  
 This is part of the Gaussian(R) 09 program.  It is based on
 the Gaussian(R) 03 system (copyright 2003, Gaussian, Inc.),
 the Gaussian(R) 98 system (copyright 1998, Gaussian, Inc.),
 the Gaussian(R) 94 system (copyright 1995, Gaussian, Inc.),
 the Gaussian 92(TM) system (copyright 1992, Gaussian, Inc.),
 the Gaussian 90(TM) system (copyright 1990, Gaussian, Inc.),
 the Gaussian 88(TM) system (copyright 1988, Gaussian, Inc.),
 the Gaussian 86(TM) system (copyright 1986, Carnegie Mellon
 University), and the Gaussian 82(TM) system (copyright 1983,
 Carnegie Mellon University). Gaussian is a federally registered
 trademark of Gaussian, Inc.
  
 This software contains proprietary and confidential information,
 including trade secrets, belonging to Gaussian, Inc.
  
 This software is provided under written license and may be
 used, copied, transmitted, or stored only in accord with that
 written license.
  
 The following legend is applicable only to US Government
 contracts under FAR:
  
                    RESTRICTED RIGHTS LEGEND
  
 Use, reproduction and disclosure by the US Government is
 subject to restrictions as set forth in subparagraphs (a)
 and (c) of the Commercial Computer Software - Restricted
 Rights clause in FAR 52.227-19.
  
 Gaussian, Inc.
 340 Quinnipiac St., Bldg. 40, Wallingford CT 06492
  
  
 ---------------------------------------------------------------
 Warning -- This program may not be used in any manner that
 competes with the business of Gaussian, Inc. or will provide
 assistance to any competitor of Gaussian, Inc.  The licensee
 of this program is prohibited from giving any competitor of
 Gaussian, Inc. access to this program.  By using this program,
 the user acknowledges that Gaussian, Inc. is engaged in the
 business of creating and licensing software in the field of
 computational chemistry and represents and warrants to the
 licensee that it is not a competitor of Gaussian, Inc. and that
 it will not use this program in any manner prohibited above.
 ---------------------------------------------------------------
  

 Cite this work as:
 Gaussian 09, Revision E.01,
 M. J. Frisch, G. W. Trucks, H. B. Schlegel, G. E. Scuseria, 
 M. A. Robb, J. R. Cheeseman, G. Scalmani, V. Barone, B. Mennucci, 
 G. A. Petersson, H. Nakatsuji, M. Caricato, X. Li, H. P. Hratchian, 
 A. F. Izmaylov, J. Bloino, G. Zheng, J. L. Sonnenberg, M. Hada, 
 M. Ehara, K. Toyota, R. Fukuda, J. Hasegawa, M. Ishida, T. Nakajima, 
 Y. Honda, O. Kitao, H. Nakai, T. Vreven, J. A. Montgomery, Jr., 
 J. E. Peralta, F. Ogliaro, M. Bearpark, J. J. Heyd, E. Brothers, 
 K. N. Kudin, V. N. Staroverov, T. Keith, R. Kobayashi, J. Normand, 
 K. Raghavachari, A. Rendell, J. C. Burant, S. S. Iyengar, J. Tomasi, 
 M. Cossi, N. Rega, J. M. Millam, M. Klene, J. E. Knox, J. B. Cross, 
 V. Bakken, C. Adamo, J. Jaramillo, R. Gomperts, R. E. Stratmann, 
 O. Yazyev, A. J. Austin, R. Cammi, C. Pomelli, J. W. Ochterski, 
 R. L. Martin, K. Morokuma, V. G. Zakrzewski, G. A. Voth, 
 P. Salvador, J. J. Dannenberg, S. Dapprich, A. D. Daniels, 
 O. Farkas, J. B. Foresman, J. V. Ortiz, J. Cioslowski, 
 and D. J. Fox, Gaussian, Inc., Wallingford CT, 2013.
 
 ******************************************
 Gaussian 09:  ES64L-G09RevE.01 30-Nov-2015
                20-May-2025 
 ******************************************
 %chk=ZnPc-Im2.chk
 %nproc=6
 Will use up to    6 processors via shared memory.
 %mem=32GB
 Default route:  MaxDisk=200GW
 ----------------------------------------------------------------------
 #p lc-blyp/def2svp geom=check guess=read iop(3/107=0400000000, 3/108=0
 400000000)
 ----------------------------------------------------------------------
 1/29=2,38=1/1;
 2/12=2,40=1/2;
 3/5=43,7=101,11=2,14=-4,16=1,25=1,30=1,74=1000402,107=400000000,108=400000000,116=-2/1,2,3;
 4/5=1/1;
 5/5=2,38=6/2;
 6/7=2,8=2,9=2,10=2,28=1/1;
 99/5=1,9=1/99;
 Leave Link    1 at Tue May 20 14:53:07 2025, MaxMem=  4294967296 cpu:         0.1
 (Enter /home/sergey/g09/l101.exe)
 ---------------
 geom b3pw/631gd
 ---------------
 Structure from the checkpoint file:  "ZnPc-Im2.chk"
 Charge =  0 Multiplicity = 1
 Redundant internal coordinates found in file.
 C,0,2.2747258455,1.7984332732,0.1580869177
 C,0,2.1510022539,1.6684294088,1.5592613559
 C,0,2.1177571756,0.6860534496,-0.6768793687
 C,0,1.858969612,0.4427934795,2.1455842024
 H,0,2.2806882391,2.5503140619,2.1800080746
 C,0,1.8070561136,-0.5340504971,-0.0868750037
 H,0,2.1883602823,0.7755571874,-1.7572847394
 C,0,1.6744583096,-0.6550921417,1.3081781965
 H,0,1.7507049156,0.346500904,3.2211753625
 C,0,1.5088386334,-1.8488580306,-0.6433219052
 C,0,1.2830969863,-2.0360860338,1.561209905
 N,0,1.1772783719,-2.6965422788,0.3722583552
 N,0,1.5955695002,-2.1188888938,-1.9407691025
 N,0,1.0837614755,-2.5156219438,2.783802823
 Zn,0,0.2499093643,-4.4997662104,0.1173575245
 C,0,1.3966183876,-3.3279445682,-2.451211507
 C,0,0.7505055857,-3.7750331569,3.0317589066
 N,0,0.5113529037,-4.7700792878,2.1263352593
 N,0,0.3789822164,-6.5437642393,-0.0331399528
 N,0,1.0259124681,-4.4616908613,-1.7875953197
 C,0,1.5971611871,-3.6379017429,-3.8643430998
 C,0,0.624426627,-4.3120975937,4.3837667899
 C,0,0.2774803327,-5.9326606919,2.7999236118
 C,0,0.1746993036,-7.418479794,0.9952548287
 C,0,0.485688256,-7.2483789415,-1.1991324438
 C,0,0.9966917617,-5.4998767427,-2.6697649538
 C,0,1.3472546928,-5.0144563598,-4.001874493
 C,0,1.9696270234,-2.8618482479,-4.9592576071
 C,0,0.7609413513,-3.7363946422,5.6446894872
 C,0,0.3227806659,-5.6769846029,4.2370148592
 N,0,0.0910407569,-7.1457034989,2.2912455335
 C,0,0.1067904016,-8.7783059824,0.4665056612
 C,0,0.3051371231,-8.6710525555,-0.9209462918
 N,0,0.7356533191,-6.7780462465,-2.4147832797
 C,0,1.4655554524,-5.6486534703,-5.2361186104
 C,0,2.0797101355,-3.4945004861,-6.1953265514
 H,0,2.1637011322,-1.7993648422,-4.8447014165
 C,0,0.5782594019,-4.5573678556,6.7548208262
 H,0,1.0021515385,-2.6825638245,5.7493039788
 C,0,0.1500631177,-6.5000760828,5.3471962373
 C,0,-0.083241923,-10.017578118,1.0730923088
 C,0,0.3174039357,-9.800245179,-1.7364899864
 C,0,1.8315557754,-4.8709175279,-6.3320248035
 H,0,1.2769689866,-6.714013613,-5.3312773913
 H,0,2.3641249506,-2.9166573249,-7.0712504742
 C,0,0.2765169441,-5.9220977518,6.607967802
 H,0,0.6729604147,-4.1389999846,7.7537782088
 H,0,-0.0757022726,-7.555238516,5.2242329088
 C,0,-0.0793503509,-11.1457533358,0.2564231273
 H,0,-0.2283122716,-10.0915585599,2.146851398
 C,0,0.1184580041,-11.038472812,-1.1309135174
 H,0,0.47865893,-9.7083867997,-2.8065966959
 H,0,1.9296305573,-5.3336635999,-7.3108901467
 H,0,0.1428934023,-6.534911596,7.4959126793
 H,0,-0.2287733171,-12.1283419734,0.6969509374
 H,0,0.1185883485,-11.9400327651,-1.738436223
 C,0,2.5715758081,3.1225632018,-0.4150391676
 N,0,1.8056456405,4.2114504762,-0.3411602042
 N,0,3.7207978704,3.4093165493,-1.0890081978
 C,0,2.4883828333,5.2163645856,-0.9842496999
 C,0,3.6750095517,4.735267378,-1.4533872295
 C,0,4.8351022001,2.5146340998,-1.3485369016
 H,0,2.0784846448,6.2113045736,-1.0688949314
 H,0,4.4792809807,5.2045474679,-1.999911154
 H,0,5.770669579,3.0062420134,-1.0688614495
 H,0,4.7141308758,1.6094075589,-0.753387292
 H,0,4.8721794833,2.2427046875,-2.4078684376
 C,0,-2.2720586199,-1.8004751337,0.1729589096
 C,0,-2.139393364,-1.6702654565,1.5732879588
 C,0,-2.1204250001,-0.6882013316,-0.6631450955
 C,0,-1.84363447,-0.4445390113,2.1575632566
 H,0,-2.2651106157,-2.552057739,2.194981527
 C,0,-1.8059607584,0.5319761361,-0.0753106049
 H,0,-2.1979204643,-0.7778434809,-1.7430660292
 C,0,-1.6644600361,0.653230411,1.3188484163
 H,0,-1.7285164378,-0.3481073685,3.2324303014
 C,0,-1.5112975138,1.8466938474,-0.633860107
 C,0,-1.2714658021,2.0342656054,1.5691450123
 N,0,-1.173243013,2.6945405761,0.379441139
 N,0,-1.6063034629,2.1164694287,-1.9307801604
 N,0,-1.0643402187,2.5140085232,2.7903601903
 Zn,0,-0.2472864365,4.4977091894,0.1182391779
 C,0,-1.4105908077,3.3254252549,-2.4427117585
 C,0,-0.7295747776,3.7734867901,3.0359554399
 N,0,-0.4961691892,4.7683621984,2.1288497403
 N,0,-0.3776043084,6.5416793823,-0.0317447528
 N,0,-1.0356491296,4.4592759231,-1.7816769415
 C,0,-1.6201150543,3.6351191968,-3.8545978198
 C,0,-0.5950540849,4.3108226565,4.3870414752
 C,0,-0.2581911313,5.9310996455,2.8007356447
 C,0,-0.1669250986,7.4165998804,0.9951856309
 C,0,-0.4917522287,7.2460815636,-1.1971627728
 C,0,-1.0120252932,5.4973020609,-2.6642057173
 C,0,-1.3710593338,5.0116428803,-3.9939707384
 C,0,-1.9995541859,2.8588720736,-4.9469774627
 C,0,-0.723627441,3.7353569416,5.6489072053
 C,0,-0.2944568874,5.6757063667,4.2381338148
 N,0,-0.0750627071,7.1440639852,2.2906712794
 C,0,-0.1024886756,8.7763365888,0.4657792226
 C,0,-0.3095739195,8.6688175724,-0.9203749743
 N,0,-0.7493850976,6.7755183624,-2.4111228149
 C,0,-1.4971950228,5.6456143478,-5.2275542693
 C,0,-2.1174818939,3.4912979148,-6.1824390521
 H,0,-2.1929213695,1.7964146097,-4.8309933315
 C,0,-0.5340734874,4.5565656051,6.7577111794
 H,0,-0.9640876387,2.6815262612,5.7552359162
 C,0,-0.1148749034,6.4990347469,5.3470504722
 C,0,0.0912409816,10.0157370579,1.070935562
 C,0,-0.327101642,9.7978661366,-1.736024185
 C,0,-1.8701726557,4.8676839658,-6.3209672978
 H,0,-1.3091966997,6.7109528911,-5.3241074995
 H,0,-2.4074733376,2.9132988321,-7.0564295883
 C,0,-0.233380992,5.9212941065,6.6087026583
 H,0,-0.6224822258,4.1383876086,7.7573246558
 H,0,0.1100124125,7.554194901,5.2224679945
 C,0,0.0820852612,11.1437659788,0.2541083037
 H,0,0.2430708692,10.0899233547,2.1437456617
 C,0,-0.1244617681,11.0362197719,-1.1319351441
 H,0,-0.4951007171,9.7058012464,-2.8050750233
 H,0,-1.9744598866,5.330250799,-7.2992751307
 H,0,-0.0942607235,6.5342961955,7.4956730326
 H,0,0.2341859918,12.1264476893,0.6935109416
 H,0,-0.1285155036,11.9376723618,-1.7396037086
 C,0,-2.572504982,-3.1246368373,-0.3981930823
 N,0,-1.8061971238,-4.2135623234,-0.3290408752
 N,0,-3.7258632935,-3.411305186,-1.0651128543
 C,0,-2.492879704,-5.2183917132,-0.9680277847
 C,0,-3.6823508063,-4.7372313604,-1.4298544885
 C,0,-4.8416424642,-2.516518098,-1.3178554902
 H,0,-2.0835736123,-6.2133583002,-1.0551878764
 H,0,-4.4899891986,-5.2064607366,-1.9714347868
 H,0,-5.7756386541,-3.008691255,-1.0339773022
 H,0,-4.7178290936,-1.6119938859,-0.7222170784
 H,0,-4.8842461139,-2.2432770774,-2.3766447189
 Recover connectivity data from disk.
 NAtoms=    134 NQM=      134 NQMF=       0 NMMI=      0 NMMIF=      0
                NMic=       0 NMicF=      0.
                    Isotopes and Nuclear Properties:
 (Nuclear quadrupole moments (NQMom) in fm**2, nuclear magnetic moments (NMagM)
  in nuclear magnetons)

  Atom         1           2           3           4           5           6           7           8           9          10
 IAtWgt=          12          12          12          12           1          12           1          12           1          12
 AtmWgt=  12.0000000  12.0000000  12.0000000  12.0000000   1.0078250  12.0000000   1.0078250  12.0000000   1.0078250  12.0000000
 NucSpn=           0           0           0           0           1           0           1           0           1           0
 AtZEff=  -3.6000000  -3.6000000  -3.6000000  -3.6000000  -1.0000000  -3.6000000  -1.0000000  -3.6000000  -1.0000000  -3.6000000
 NQMom=    0.0000000   0.0000000   0.0000000   0.0000000   0.0000000   0.0000000   0.0000000   0.0000000   0.0000000   0.0000000
 NMagM=    0.0000000   0.0000000   0.0000000   0.0000000   2.7928460   0.0000000   2.7928460   0.0000000   2.7928460   0.0000000
 AtZNuc=   6.0000000   6.0000000   6.0000000   6.0000000   1.0000000   6.0000000   1.0000000   6.0000000   1.0000000   6.0000000

  Atom        11          12          13          14          15          16          17          18          19          20
 IAtWgt=          12          14          14          14          64          12          12          14          14          14
 AtmWgt=  12.0000000  14.0030740  14.0030740  14.0030740  63.9291454  12.0000000  12.0000000  14.0030740  14.0030740  14.0030740
 NucSpn=           0           2           2           2           0           0           0           2           2           2
 AtZEff=  -3.6000000  -4.5500000  -4.5500000  -4.5500000 -25.5000000  -3.6000000  -3.6000000  -4.5500000  -4.5500000  -4.5500000
 NQMom=    0.0000000   2.0440000   2.0440000   2.0440000   0.0000000   0.0000000   0.0000000   2.0440000   2.0440000   2.0440000
 NMagM=    0.0000000   0.4037610   0.4037610   0.4037610   0.0000000   0.0000000   0.0000000   0.4037610   0.4037610   0.4037610
 AtZNuc=   6.0000000   7.0000000   7.0000000   7.0000000  30.0000000   6.0000000   6.0000000   7.0000000   7.0000000   7.0000000

  Atom        21          22          23          24          25          26          27          28          29          30
 IAtWgt=          12          12          12          12          12          12          12          12          12          12
 AtmWgt=  12.0000000  12.0000000  12.0000000  12.0000000  12.0000000  12.0000000  12.0000000  12.0000000  12.0000000  12.0000000
 NucSpn=           0           0           0           0           0           0           0           0           0           0
 AtZEff=  -3.6000000  -3.6000000  -3.6000000  -3.6000000  -3.6000000  -3.6000000  -3.6000000  -3.6000000  -3.6000000  -3.6000000
 NQMom=    0.0000000   0.0000000   0.0000000   0.0000000   0.0000000   0.0000000   0.0000000   0.0000000   0.0000000   0.0000000
 NMagM=    0.0000000   0.0000000   0.0000000   0.0000000   0.0000000   0.0000000   0.0000000   0.0000000   0.0000000   0.0000000
 AtZNuc=   6.0000000   6.0000000   6.0000000   6.0000000   6.0000000   6.0000000   6.0000000   6.0000000   6.0000000   6.0000000

  Atom        31          32          33          34          35          36          37          38          39          40
 IAtWgt=          14          12          12          14          12          12           1          12           1          12
 AtmWgt=  14.0030740  12.0000000  12.0000000  14.0030740  12.0000000  12.0000000   1.0078250  12.0000000   1.0078250  12.0000000
 NucSpn=           2           0           0           2           0           0           1           0           1           0
 AtZEff=  -4.5500000  -3.6000000  -3.6000000  -4.5500000  -3.6000000  -3.6000000  -1.0000000  -3.6000000  -1.0000000  -3.6000000
 NQMom=    2.0440000   0.0000000   0.0000000   2.0440000   0.0000000   0.0000000   0.0000000   0.0000000   0.0000000   0.0000000
 NMagM=    0.4037610   0.0000000   0.0000000   0.4037610   0.0000000   0.0000000   2.7928460   0.0000000   2.7928460   0.0000000
 AtZNuc=   7.0000000   6.0000000   6.0000000   7.0000000   6.0000000   6.0000000   1.0000000   6.0000000   1.0000000   6.0000000

  Atom        41          42          43          44          45          46          47          48          49          50
 IAtWgt=          12          12          12           1           1          12           1           1          12           1
 AtmWgt=  12.0000000  12.0000000  12.0000000   1.0078250   1.0078250  12.0000000   1.0078250   1.0078250  12.0000000   1.0078250
 NucSpn=           0           0           0           1           1           0           1           1           0           1
 AtZEff=  -3.6000000  -3.6000000  -3.6000000  -1.0000000  -1.0000000  -3.6000000  -1.0000000  -1.0000000  -3.6000000  -1.0000000
 NQMom=    0.0000000   0.0000000   0.0000000   0.0000000   0.0000000   0.0000000   0.0000000   0.0000000   0.0000000   0.0000000
 NMagM=    0.0000000   0.0000000   0.0000000   2.7928460   2.7928460   0.0000000   2.7928460   2.7928460   0.0000000   2.7928460
 AtZNuc=   6.0000000   6.0000000   6.0000000   1.0000000   1.0000000   6.0000000   1.0000000   1.0000000   6.0000000   1.0000000

  Atom        51          52          53          54          55          56          57          58          59          60
 IAtWgt=          12           1           1           1           1           1          12          14          14          12
 AtmWgt=  12.0000000   1.0078250   1.0078250   1.0078250   1.0078250   1.0078250  12.0000000  14.0030740  14.0030740  12.0000000
 NucSpn=           0           1           1           1           1           1           0           2           2           0
 AtZEff=  -3.6000000  -1.0000000  -1.0000000  -1.0000000  -1.0000000  -1.0000000  -3.6000000  -4.5500000  -4.5500000  -3.6000000
 NQMom=    0.0000000   0.0000000   0.0000000   0.0000000   0.0000000   0.0000000   0.0000000   2.0440000   2.0440000   0.0000000
 NMagM=    0.0000000   2.7928460   2.7928460   2.7928460   2.7928460   2.7928460   0.0000000   0.4037610   0.4037610   0.0000000
 AtZNuc=   6.0000000   1.0000000   1.0000000   1.0000000   1.0000000   1.0000000   6.0000000   7.0000000   7.0000000   6.0000000

  Atom        61          62          63          64          65          66          67          68          69          70
 IAtWgt=          12          12           1           1           1           1           1          12          12          12
 AtmWgt=  12.0000000  12.0000000   1.0078250   1.0078250   1.0078250   1.0078250   1.0078250  12.0000000  12.0000000  12.0000000
 NucSpn=           0           0           1           1           1           1           1           0           0           0
 AtZEff=  -3.6000000  -3.6000000  -1.0000000  -1.0000000  -1.0000000  -1.0000000  -1.0000000  -3.6000000  -3.6000000  -3.6000000
 NQMom=    0.0000000   0.0000000   0.0000000   0.0000000   0.0000000   0.0000000   0.0000000   0.0000000   0.0000000   0.0000000
 NMagM=    0.0000000   0.0000000   2.7928460   2.7928460   2.7928460   2.7928460   2.7928460   0.0000000   0.0000000   0.0000000
 AtZNuc=   6.0000000   6.0000000   1.0000000   1.0000000   1.0000000   1.0000000   1.0000000   6.0000000   6.0000000   6.0000000

  Atom        71          72          73          74          75          76          77          78          79          80
 IAtWgt=          12           1          12           1          12           1          12          12          14          14
 AtmWgt=  12.0000000   1.0078250  12.0000000   1.0078250  12.0000000   1.0078250  12.0000000  12.0000000  14.0030740  14.0030740
 NucSpn=           0           1           0           1           0           1           0           0           2           2
 AtZEff=  -3.6000000  -1.0000000  -3.6000000  -1.0000000  -3.6000000  -1.0000000  -3.6000000  -3.6000000  -4.5500000  -4.5500000
 NQMom=    0.0000000   0.0000000   0.0000000   0.0000000   0.0000000   0.0000000   0.0000000   0.0000000   2.0440000   2.0440000
 NMagM=    0.0000000   2.7928460   0.0000000   2.7928460   0.0000000   2.7928460   0.0000000   0.0000000   0.4037610   0.4037610
 AtZNuc=   6.0000000   1.0000000   6.0000000   1.0000000   6.0000000   1.0000000   6.0000000   6.0000000   7.0000000   7.0000000

  Atom        81          82          83          84          85          86          87          88          89          90
 IAtWgt=          14          64          12          12          14          14          14          12          12          12
 AtmWgt=  14.0030740  63.9291454  12.0000000  12.0000000  14.0030740  14.0030740  14.0030740  12.0000000  12.0000000  12.0000000
 NucSpn=           2           0           0           0           2           2           2           0           0           0
 AtZEff=  -4.5500000 -25.5000000  -3.6000000  -3.6000000  -4.5500000  -4.5500000  -4.5500000  -3.6000000  -3.6000000  -3.6000000
 NQMom=    2.0440000   0.0000000   0.0000000   0.0000000   2.0440000   2.0440000   2.0440000   0.0000000   0.0000000   0.0000000
 NMagM=    0.4037610   0.0000000   0.0000000   0.0000000   0.4037610   0.4037610   0.4037610   0.0000000   0.0000000   0.0000000
 AtZNuc=   7.0000000  30.0000000   6.0000000   6.0000000   7.0000000   7.0000000   7.0000000   6.0000000   6.0000000   6.0000000

  Atom        91          92          93          94          95          96          97          98          99         100
 IAtWgt=          12          12          12          12          12          12          12          14          12          12
 AtmWgt=  12.0000000  12.0000000  12.0000000  12.0000000  12.0000000  12.0000000  12.0000000  14.0030740  12.0000000  12.0000000
 NucSpn=           0           0           0           0           0           0           0           2           0           0
 AtZEff=  -3.6000000  -3.6000000  -3.6000000  -3.6000000  -3.6000000  -3.6000000  -3.6000000  -4.5500000  -3.6000000  -3.6000000
 NQMom=    0.0000000   0.0000000   0.0000000   0.0000000   0.0000000   0.0000000   0.0000000   2.0440000   0.0000000   0.0000000
 NMagM=    0.0000000   0.0000000   0.0000000   0.0000000   0.0000000   0.0000000   0.0000000   0.4037610   0.0000000   0.0000000
 AtZNuc=   6.0000000   6.0000000   6.0000000   6.0000000   6.0000000   6.0000000   6.0000000   7.0000000   6.0000000   6.0000000

  Atom       101         102         103         104         105         106         107         108         109         110
 IAtWgt=          14          12          12           1          12           1          12          12          12          12
 AtmWgt=  14.0030740  12.0000000  12.0000000   1.0078250  12.0000000   1.0078250  12.0000000  12.0000000  12.0000000  12.0000000
 NucSpn=           2           0           0           1           0           1           0           0           0           0
 AtZEff=  -4.5500000  -3.6000000  -3.6000000  -1.0000000  -3.6000000  -1.0000000  -3.6000000  -3.6000000  -3.6000000  -3.6000000
 NQMom=    2.0440000   0.0000000   0.0000000   0.0000000   0.0000000   0.0000000   0.0000000   0.0000000   0.0000000   0.0000000
 NMagM=    0.4037610   0.0000000   0.0000000   2.7928460   0.0000000   2.7928460   0.0000000   0.0000000   0.0000000   0.0000000
 AtZNuc=   7.0000000   6.0000000   6.0000000   1.0000000   6.0000000   1.0000000   6.0000000   6.0000000   6.0000000   6.0000000

  Atom       111         112         113         114         115         116         117         118         119         120
 IAtWgt=           1           1          12           1           1          12           1          12           1           1
 AtmWgt=   1.0078250   1.0078250  12.0000000   1.0078250   1.0078250  12.0000000   1.0078250  12.0000000   1.0078250   1.0078250
 NucSpn=           1           1           0           1           1           0           1           0           1           1
 AtZEff=  -1.0000000  -1.0000000  -3.6000000  -1.0000000  -1.0000000  -3.6000000  -1.0000000  -3.6000000  -1.0000000  -1.0000000
 NQMom=    0.0000000   0.0000000   0.0000000   0.0000000   0.0000000   0.0000000   0.0000000   0.0000000   0.0000000   0.0000000
 NMagM=    2.7928460   2.7928460   0.0000000   2.7928460   2.7928460   0.0000000   2.7928460   0.0000000   2.7928460   2.7928460
 AtZNuc=   1.0000000   1.0000000   6.0000000   1.0000000   1.0000000   6.0000000   1.0000000   6.0000000   1.0000000   1.0000000

  Atom       121         122         123         124         125         126         127         128         129         130
 IAtWgt=           1           1           1          12          14          14          12          12          12           1
 AtmWgt=   1.0078250   1.0078250   1.0078250  12.0000000  14.0030740  14.0030740  12.0000000  12.0000000  12.0000000   1.0078250
 NucSpn=           1           1           1           0           2           2           0           0           0           1
 AtZEff=  -1.0000000  -1.0000000  -1.0000000  -3.6000000  -4.5500000  -4.5500000  -3.6000000  -3.6000000  -3.6000000  -1.0000000
 NQMom=    0.0000000   0.0000000   0.0000000   0.0000000   2.0440000   2.0440000   0.0000000   0.0000000   0.0000000   0.0000000
 NMagM=    2.7928460   2.7928460   2.7928460   0.0000000   0.4037610   0.4037610   0.0000000   0.0000000   0.0000000   2.7928460
 AtZNuc=   1.0000000   1.0000000   1.0000000   6.0000000   7.0000000   7.0000000   6.0000000   6.0000000   6.0000000   1.0000000

  Atom       131         132         133         134
 IAtWgt=           1           1           1           1
 AtmWgt=   1.0078250   1.0078250   1.0078250   1.0078250
 NucSpn=           1           1           1           1
 AtZEff=  -1.0000000  -1.0000000  -1.0000000  -1.0000000
 NQMom=    0.0000000   0.0000000   0.0000000   0.0000000
 NMagM=    2.7928460   2.7928460   2.7928460   2.7928460
 AtZNuc=   1.0000000   1.0000000   1.0000000   1.0000000
 Leave Link  101 at Tue May 20 14:53:08 2025, MaxMem=  4294967296 cpu:         1.7
 (Enter /home/sergey/g09/l202.exe)
 Stoichiometry    C72H40N20Zn2
 Framework group  C1[X(C72H40N20Zn2)]
 Deg. of freedom   396
 Full point group                 C1      NOp   1
 RotChk:  IX=0 Diff= 5.01D-16
 Largest Abelian subgroup         C1      NOp   1
 Largest concise Abelian subgroup C1      NOp   1
                         Standard orientation:                         
 ---------------------------------------------------------------------
 Center     Atomic      Atomic             Coordinates (Angstroms)
 Number     Number       Type             X           Y           Z
 ---------------------------------------------------------------------
      1          6           0        1.752560    0.126878    2.309763
      2          6           0        1.625111    1.527645    2.178966
      3          6           0        0.643626   -0.708656    2.132720
      4          6           0        0.405704    2.112957    1.860066
      5          1           0        2.504156    2.148858    2.324696
      6          6           0       -0.569869   -0.119721    1.795257
      7          1           0        0.731669   -1.788826    2.208563
      8          6           0       -0.688176    1.274897    1.655790
      9          1           0        0.311643    3.188193    1.746446
     10          6           0       -1.878300   -0.677199    1.471972
     11          6           0       -2.060876    1.526594    1.235462
     12          7           0       -2.719027    0.337269    1.119924
     13          7           0       -2.150045   -1.974383    1.557272
     14          7           0       -2.536237    2.748517    1.022485
     15         30           0       -4.502902    0.079310    0.156675
     16          6           0       -3.354777   -2.485534    1.335250
     17          6           0       -3.788568    2.995331    0.662752
     18          7           0       -4.778512    2.089088    0.406166
     19          7           0       -6.549113   -0.070915    0.244386
     20          7           0       -4.480704   -1.823172    0.939328
     21          6           0       -3.668768   -3.898044    1.533888
     22          6           0       -4.322944    4.346897    0.521429
     23          6           0       -5.936067    2.761854    0.146427
     24          6           0       -7.419469    0.956768    0.018994
     25          6           0       -7.255760   -1.236611    0.340351
     26          6           0       -5.518073   -2.705500    0.891673
     27          6           0       -5.039922   -4.036459    1.256312
     28          6           0       -2.900494   -4.991721    1.925619
     29          6           0       -3.750157    5.608285    0.665695
     30          6           0       -5.681375    4.199098    0.192393
     31          7           0       -7.145041    2.252506   -0.063174
     32          6           0       -8.777620    0.427715   -0.075041
     33          6           0       -8.674443   -0.959094    0.129855
     34          7           0       -6.790636   -2.451432    0.603736
     35          6           0       -5.676404   -5.270365    1.365526
     36          6           0       -3.535262   -6.227477    2.026654
     37          1           0       -1.842203   -4.876479    2.141022
     38          6           0       -4.567224    6.717776    0.462740
     39          1           0       -2.701481    5.713734    0.928079
     40          6           0       -6.500764    5.308672   -0.000643
     41          6           0      -10.012747    1.033614   -0.292305
     42          6           0       -9.803649   -1.774671    0.121605
     43          6           0       -4.906315   -6.365053    1.750831
     44          1           0       -6.737683   -5.366192    1.155489
     45          1           0       -2.963356   -7.102457    2.325604
     46          6           0       -5.925496    6.569876    0.133611
     47          1           0       -4.150883    7.717057    0.562813
     48          1           0       -7.551087    5.184923   -0.247554
     49          6           0      -11.140764    0.216885   -0.308904
     50          1           0      -10.083747    2.106903   -0.442261
     51          6           0      -11.037549   -1.169811   -0.104546
     52          1           0       -9.715105   -2.844255    0.288096
     53          1           0       -5.370968   -7.343634    1.842521
     54          1           0       -6.535450    7.457352   -0.015334
     55          1           0      -12.120091    0.656871   -0.479790
     56          1           0      -11.938921   -1.777391   -0.120933
     57          6           0        3.070342   -0.445216    2.635452
     58          7           0        4.174669   -0.373691    1.891726
     59          7           0        3.333528   -1.115521    3.792430
     60          6           0        5.165408   -1.014546    2.596911
     61          6           0        4.660139   -1.479954    3.774929
     62          6           0        2.416239   -1.371577    4.889016
     63          1           0        6.168525   -1.100423    2.207721
     64          1           0        5.112870   -2.023895    4.590360
     65          1           0        2.888606   -1.088906    5.833553
     66          1           0        1.513676   -0.776875    4.747668
     67          1           0        2.143611   -2.430804    4.923881
     68          6           0       -1.752587    0.127101   -2.309713
     69          6           0       -1.625122    1.527852   -2.178850
     70          6           0       -0.643646   -0.708443   -2.132709
     71          6           0       -0.405703    2.113144   -1.859933
     72          1           0       -2.504159    2.149085   -2.324549
     73          6           0        0.569842   -0.119534   -1.795216
     74          1           0       -0.731682   -1.788611   -2.208599
     75          6           0        0.688173    1.275075   -1.655684
     76          1           0       -0.311649    3.188377   -1.746274
     77          6           0        1.878259   -0.677058   -1.471952
     78          6           0        2.060880    1.526708   -1.235317
     79          7           0        2.719010    0.337366   -1.119838
     80          7           0        2.149924   -1.974255   -1.557309
     81          7           0        2.536283    2.748606   -1.022292
     82         30           0        4.502861    0.079221   -0.156367
     83          6           0        3.354625   -2.485482   -1.335285
     84          6           0        3.788649    2.995345   -0.662613
     85          7           0        4.778544    2.089051   -0.406032
     86          7           0        6.549070   -0.071038   -0.244370
     87          7           0        4.480567   -1.823187   -0.939325
     88          6           0        3.668543   -3.898004   -1.533955
     89          6           0        4.323117    4.346887   -0.521412
     90          6           0        5.936168    2.761765   -0.146450
     91          6           0        7.419495    0.956613   -0.019094
     92          6           0        7.255662   -1.236765   -0.340391
     93          6           0        5.517895   -2.705566   -0.891676
     94          6           0        5.039685   -4.036495   -1.256353
     95          6           0        2.900223   -4.991633   -1.925729
     96          6           0        3.750399    5.608300   -0.665729
     97          6           0        5.681567    4.199024   -0.192487
     98          7           0        7.145134    2.252365    0.063068
     99          6           0        8.777630    0.427505    0.074821
    100          6           0        8.674373   -0.959306   -0.130026
    101          7           0        6.790470   -2.451567   -0.603747
    102          6           0        5.676106   -5.270429   -1.365584
    103          6           0        3.534932   -6.227420   -2.026779
    104          1           0        1.841943   -4.876334   -2.141156
    105          6           0        4.567556    6.717754   -0.462931
    106          1           0        2.701708    5.713796   -0.928031
    107          6           0        6.501047    5.308560    0.000383
    108          6           0       10.012807    1.033356    0.291944
    109          6           0        9.803546   -1.774930   -0.121869
    110          6           0        4.905971   -6.365071   -1.750929
    111          1           0        6.737377   -5.366315   -1.155527
    112          1           0        2.962988   -7.102363   -2.325762
    113          6           0        5.925848    6.569791   -0.133914
    114          1           0        4.151272    7.717055   -0.563043
    115          1           0        7.551386    5.184761    0.247201
    116          6           0       11.140789    0.216579    0.308454
    117          1           0       10.083870    2.106646    0.441859
    118          6           0       11.037494   -1.170119    0.104144
    119          1           0        9.714939   -2.844514   -0.288327
    120          1           0        5.370577   -7.343673   -1.842631
    121          1           0        6.535874    7.457239    0.014905
    122          1           0       12.120153    0.656528    0.479231
    123          1           0       11.938842   -1.777737    0.120457
    124          6           0       -3.070325   -0.445089   -2.635371
    125          7           0       -4.174698   -0.373582   -1.891722
    126          7           0       -3.333338   -1.115679   -3.792233
    127          6           0       -5.165269   -1.014809   -2.596786
    128          6           0       -4.659876   -1.480370   -3.774696
    129          6           0       -2.415914   -1.371896   -4.888668
    130          1           0       -6.168400   -1.100739   -2.207645
    131          1           0       -5.112485   -2.024538   -4.590044
    132          1           0       -2.888879   -1.091012   -5.833432
    133          1           0       -1.514113   -0.775807   -4.748266
    134          1           0       -2.141856   -2.430796   -4.922318
 ---------------------------------------------------------------------
 Rotational constants (GHZ):      0.0343219      0.0121443      0.0101892
 Leave Link  202 at Tue May 20 14:53:08 2025, MaxMem=  4294967296 cpu:         0.0
 (Enter /home/sergey/g09/l301.exe)
 Standard basis: def2SVP (5D, 7F)
 Ernie: Thresh=  0.10000D-02 Tol=  0.10000D-05 Strict=F.
 There are  1652 symmetry adapted cartesian basis functions of A   symmetry.
 There are  1550 symmetry adapted basis functions of A   symmetry.
  1550 basis functions,  2742 primitive gaussians,  1652 cartesian basis functions
   336 alpha electrons      336 beta electrons
       nuclear repulsion energy     19426.5162299295 Hartrees.
 IExCor=10402 DFT=T Ex=LC-B+HF Corr=LYP ExCW=0 ScaHFX=  1.000000
 ScaDFX=  1.000000  1.000000  1.000000  1.000000 ScalE2=  1.000000  1.000000
 IRadAn=      0 IRanWt=     -1 IRanGd=            0 ICorTp=0 IEmpDi=  4
  HFx wShort=  0.000000 wLong=  0.400000 cFull=  0.000000 cShort=  0.000000 cLong=  1.000000
  DFx wShort=  0.000000 wLong=  0.400000 cFull=  0.000000 cShort=  0.000000 cLong=  1.000000
 NAtoms=  134 NActive=  134 NUniq=  134 SFac= 1.00D+00 NAtFMM=   60 NAOKFM=T Big=T
 Integral buffers will be    131072 words long.
 Raffenetti 2 integral format.
 Two-electron integral symmetry is turned on.
 Leave Link  301 at Tue May 20 14:53:08 2025, MaxMem=  4294967296 cpu:         0.2
 (Enter /home/sergey/g09/l302.exe)
 NPDir=0 NMtPBC=     1 NCelOv=     1 NCel=       1 NClECP=     1 NCelD=      1
         NCelK=      1 NCelE2=     1 NClLst=     1 CellRange=     0.0.
 One-electron integrals computed using PRISM.
   1 Symmetry operations used in ECPInt.
 ECPInt:  NShTT=  241165 NPrTT=  929599 LenC2=  146664 LenP2D=  326362.
 LDataN:  DoStor=T MaxTD1= 6 Len=  172
 NBasis=  1550 RedAO= T EigKep=  2.31D-04  NBF=  1550
 NBsUse=  1550 1.00D-06 EigRej= -1.00D+00 NBFU=  1550
 Precomputing XC quadrature grid using
 IXCGrd= 4 IRadAn=           0 IRanWt=          -1 IRanGd=           0 AccXCQ= 0.00D+00.
 Generated NRdTot=       0 NPtTot=           0 NUsed=           0 NTot=          32
 NSgBfM=  1243  1249  1259  1265  1266 MxSgAt=   134 MxSgA2=   133.
 Leave Link  302 at Tue May 20 14:53:12 2025, MaxMem=  4294967296 cpu:        25.5
 (Enter /home/sergey/g09/l303.exe)
 DipDrv:  MaxL=1.
 Leave Link  303 at Tue May 20 14:53:12 2025, MaxMem=  4294967296 cpu:         1.6
 (Enter /home/sergey/g09/l401.exe)
 Initial guess from the checkpoint file:  "ZnPc-Im2.chk"
 B after Tr=     0.000000   -0.000000   -0.000000
         Rot=    1.000000    0.000000   -0.000000    0.000000 Ang=   0.00 deg.
 Guess basis will be translated and rotated to current coordinates.
 JPrj=2 DoOrth=T DoCkMO=T.
 Leave Link  401 at Tue May 20 14:53:16 2025, MaxMem=  4294967296 cpu:        19.7
 (Enter /home/sergey/g09/l502.exe)
 Closed shell SCF:
 Using DIIS extrapolation, IDIIS=  1040.
 Integral symmetry usage will be decided dynamically.
 IVT=     8228198 IEndB=     8228198 NGot=  4294967296 MDV=  4289486495
 LenX=  4289486495 LenY=  4286755739
 Requested convergence on RMS density matrix=1.00D-08 within 128 cycles.
 Requested convergence on MAX density matrix=1.00D-06.
 Requested convergence on             energy=1.00D-06.
 No special actions if energy rises.
 Fock matrices will be formed incrementally for  20 cycles.

 Cycle   1  Pass 1  IDiag  1:
 FoFJK:  IHMeth= 1 ICntrl=       0 DoSepK=T KAlg= 0 I1Cent=   0 FoldK=F
 IRaf=         1 NMat=   1 IRICut=       1 DoRegI=T DoRafI=F ISym2E= 0.
 FoFCou: FMM=T IPFlag=           0 FMFlag=      100000 FMFlg1=        2001
         NFxFlg=           0 DoJE=T BraDBF=F KetDBF=F FulRan=T
         wScrn=  0.000000 ICntrl=     500 IOpCl=  0 I1Cent=           0 NGrid=           0
         NMat0=    1 NMatS0=      1 NMatT0=    0 NMatD0=    1 NMtDS0=    0 NMtDT0=    0
 Symmetry not used in FoFCou.
 FMM levels:  10  Number of levels for PrismC:   9
 E= -7407.41160130681    
 DIIS: error= 6.81D-02 at cycle   1 NSaved=   1.
 NSaved= 1 IEnMin= 1 EnMin= -7407.41160130681     IErMin= 1 ErrMin= 6.81D-02
 ErrMax= 6.81D-02  0.00D+00 EMaxC= 1.00D-01 BMatC= 1.71D+00 BMatP= 1.71D+00
 IDIUse=3 WtCom= 3.19D-01 WtEn= 6.81D-01
 Coeff-Com:  0.100D+01
 Coeff-En:   0.100D+01
 Coeff:      0.100D+01
 Gap=     0.621 Goal=   None    Shift=    0.000
 GapD=    0.621 DampG=2.000 DampE=0.250 DampFc=0.5000 IDamp=-1.
 Damping current iteration by 5.00D-01
 RMSDP=1.21D-03 MaxDP=7.06D-02              OVMax= 2.75D-02

 Cycle   2  Pass 1  IDiag  1:
 RMSU=  6.05D-04    CP:  9.94D-01
 E= -7407.54551606509     Delta-E=       -0.133914758277 Rises=F Damp=T
 DIIS: error= 3.45D-02 at cycle   2 NSaved=   2.
 NSaved= 2 IEnMin= 2 EnMin= -7407.54551606509     IErMin= 2 ErrMin= 3.45D-02
 ErrMax= 3.45D-02  0.00D+00 EMaxC= 1.00D-01 BMatC= 4.45D-01 BMatP= 1.71D+00
 IDIUse=3 WtCom= 6.55D-01 WtEn= 3.45D-01
 Coeff-Com: -0.102D+01 0.202D+01
 Coeff-En:   0.000D+00 0.100D+01
 Coeff:     -0.669D+00 0.167D+01
 Gap=     0.179 Goal=   None    Shift=    0.000
 RMSDP=7.37D-04 MaxDP=4.49D-02 DE=-1.34D-01 OVMax= 1.03D-02

 Cycle   3  Pass 1  IDiag  1:
 RMSU=  1.15D-04    CP:  9.88D-01  2.20D+00
 E= -7407.70297131741     Delta-E=       -0.157455252316 Rises=F Damp=F
 DIIS: error= 2.54D-03 at cycle   3 NSaved=   3.
 NSaved= 3 IEnMin= 3 EnMin= -7407.70297131741     IErMin= 3 ErrMin= 2.54D-03
 ErrMax= 2.54D-03  0.00D+00 EMaxC= 1.00D-01 BMatC= 3.67D-03 BMatP= 4.45D-01
 IDIUse=3 WtCom= 9.75D-01 WtEn= 2.54D-02
 Coeff-Com: -0.353D+00 0.687D+00 0.667D+00
 Coeff-En:   0.000D+00 0.000D+00 0.100D+01
 Coeff:     -0.344D+00 0.669D+00 0.675D+00
 Gap=     0.179 Goal=   None    Shift=    0.000
 RMSDP=6.52D-05 MaxDP=5.38D-03 DE=-1.57D-01 OVMax= 4.34D-03

 Cycle   4  Pass 1  IDiag  1:
 RMSU=  5.37D-05    CP:  9.87D-01  2.26D+00  1.06D+00
 E= -7407.70556453441     Delta-E=       -0.002593217003 Rises=F Damp=F
 DIIS: error= 8.76D-04 at cycle   4 NSaved=   4.
 NSaved= 4 IEnMin= 4 EnMin= -7407.70556453441     IErMin= 4 ErrMin= 8.76D-04
 ErrMax= 8.76D-04  0.00D+00 EMaxC= 1.00D-01 BMatC= 4.58D-04 BMatP= 3.67D-03
 IDIUse=3 WtCom= 9.91D-01 WtEn= 8.76D-03
 Coeff-Com:  0.126D+00-0.251D+00 0.167D+00 0.958D+00
 Coeff-En:   0.000D+00 0.000D+00 0.000D+00 0.100D+01
 Coeff:      0.125D+00-0.249D+00 0.165D+00 0.959D+00
 Gap=     0.179 Goal=   None    Shift=    0.000
 RMSDP=3.23D-05 MaxDP=2.38D-03 DE=-2.59D-03 OVMax= 3.90D-03

 Cycle   5  Pass 1  IDiag  1:
 RMSU=  1.70D-05    CP:  9.87D-01  2.28D+00  1.24D+00  1.10D+00
 E= -7407.70595912851     Delta-E=       -0.000394594099 Rises=F Damp=F
 DIIS: error= 1.60D-04 at cycle   5 NSaved=   5.
 NSaved= 5 IEnMin= 5 EnMin= -7407.70595912851     IErMin= 5 ErrMin= 1.60D-04
 ErrMax= 1.60D-04  0.00D+00 EMaxC= 1.00D-01 BMatC= 3.76D-05 BMatP= 4.58D-04
 IDIUse=3 WtCom= 9.98D-01 WtEn= 1.60D-03
 Coeff-Com:  0.638D-01-0.127D+00 0.282D-01 0.372D+00 0.663D+00
 Coeff-En:   0.000D+00 0.000D+00 0.000D+00 0.000D+00 0.100D+01
 Coeff:      0.637D-01-0.126D+00 0.282D-01 0.371D+00 0.663D+00
 Gap=     0.180 Goal=   None    Shift=    0.000
 RMSDP=7.24D-06 MaxDP=4.87D-04 DE=-3.95D-04 OVMax= 1.10D-03

 Cycle   6  Pass 1  IDiag  1:
 RMSU=  4.90D-06    CP:  9.87D-01  2.29D+00  1.27D+00  1.16D+00  8.92D-01
 E= -7407.70599938739     Delta-E=       -0.000040258878 Rises=F Damp=F
 DIIS: error= 5.61D-05 at cycle   6 NSaved=   6.
 NSaved= 6 IEnMin= 6 EnMin= -7407.70599938739     IErMin= 6 ErrMin= 5.61D-05
 ErrMax= 5.61D-05  0.00D+00 EMaxC= 1.00D-01 BMatC= 4.21D-06 BMatP= 3.76D-05
 IDIUse=1 WtCom= 1.00D+00 WtEn= 0.00D+00
 Coeff-Com:  0.101D-01-0.199D-01-0.672D-02 0.372D-01 0.233D+00 0.746D+00
 Coeff:      0.101D-01-0.199D-01-0.672D-02 0.372D-01 0.233D+00 0.746D+00
 Gap=     0.180 Goal=   None    Shift=    0.000
 RMSDP=3.24D-06 MaxDP=2.35D-04 DE=-4.03D-05 OVMax= 1.48D-03

 Cycle   7  Pass 1  IDiag  1:
 RMSU=  2.29D-06    CP:  9.87D-01  2.29D+00  1.28D+00  1.18D+00  9.89D-01
                    CP:  1.10D+00
 E= -7407.70600843329     Delta-E=       -0.000009045907 Rises=F Damp=F
 DIIS: error= 5.19D-05 at cycle   7 NSaved=   7.
 NSaved= 7 IEnMin= 7 EnMin= -7407.70600843329     IErMin= 7 ErrMin= 5.19D-05
 ErrMax= 5.19D-05  0.00D+00 EMaxC= 1.00D-01 BMatC= 1.06D-06 BMatP= 4.21D-06
 IDIUse=1 WtCom= 1.00D+00 WtEn= 0.00D+00
 Coeff-Com: -0.114D-01 0.226D-01-0.917D-02-0.738D-01-0.651D-01 0.261D+00
 Coeff-Com:  0.876D+00
 Coeff:     -0.114D-01 0.226D-01-0.917D-02-0.738D-01-0.651D-01 0.261D+00
 Coeff:      0.876D+00
 Gap=     0.180 Goal=   None    Shift=    0.000
 RMSDP=2.36D-06 MaxDP=1.55D-04 DE=-9.05D-06 OVMax= 9.39D-04

 Cycle   8  Pass 1  IDiag  1:
 RMSU=  1.31D-06    CP:  9.87D-01  2.29D+00  1.28D+00  1.19D+00  1.04D+00
                    CP:  1.40D+00  1.16D+00
 E= -7407.70601313494     Delta-E=       -0.000004701647 Rises=F Damp=F
 DIIS: error= 3.20D-05 at cycle   8 NSaved=   8.
 NSaved= 8 IEnMin= 8 EnMin= -7407.70601313494     IErMin= 8 ErrMin= 3.20D-05
 ErrMax= 3.20D-05  0.00D+00 EMaxC= 1.00D-01 BMatC= 3.41D-07 BMatP= 1.06D-06
 IDIUse=1 WtCom= 1.00D+00 WtEn= 0.00D+00
 Coeff-Com: -0.681D-02 0.135D-01-0.310D-02-0.390D-01-0.673D-01-0.482D-02
 Coeff-Com:  0.364D+00 0.743D+00
 Coeff:     -0.681D-02 0.135D-01-0.310D-02-0.390D-01-0.673D-01-0.482D-02
 Coeff:      0.364D+00 0.743D+00
 Gap=     0.180 Goal=   None    Shift=    0.000
 RMSDP=1.33D-06 MaxDP=1.19D-04 DE=-4.70D-06 OVMax= 9.41D-04

 Cycle   9  Pass 1  IDiag  1:
 RMSU=  7.28D-07    CP:  9.87D-01  2.29D+00  1.29D+00  1.19D+00  1.07D+00
                    CP:  1.48D+00  1.54D+00  1.29D+00
 E= -7407.70601518220     Delta-E=       -0.000002047262 Rises=F Damp=F
 DIIS: error= 2.88D-05 at cycle   9 NSaved=   9.
 NSaved= 9 IEnMin= 9 EnMin= -7407.70601518220     IErMin= 9 ErrMin= 2.88D-05
 ErrMax= 2.88D-05  0.00D+00 EMaxC= 1.00D-01 BMatC= 1.96D-07 BMatP= 3.41D-07
 IDIUse=1 WtCom= 1.00D+00 WtEn= 0.00D+00
 Coeff-Com:  0.480D-02-0.956D-02 0.428D-02 0.329D-01 0.178D-01-0.136D+00
 Coeff-Com: -0.451D+00 0.327D+00 0.121D+01
 Coeff:      0.480D-02-0.956D-02 0.428D-02 0.329D-01 0.178D-01-0.136D+00
 Coeff:     -0.451D+00 0.327D+00 0.121D+01
 Gap=     0.180 Goal=   None    Shift=    0.000
 RMSDP=1.82D-06 MaxDP=1.18D-04 DE=-2.05D-06 OVMax= 1.18D-03

 Cycle  10  Pass 1  IDiag  1:
 RMSU=  4.85D-07    CP:  9.87D-01  2.29D+00  1.29D+00  1.19D+00  1.09D+00
                    CP:  1.61D+00  1.89D+00  2.24D+00  1.77D+00
 E= -7407.70601728072     Delta-E=       -0.000002098517 Rises=F Damp=F
 DIIS: error= 1.46D-05 at cycle  10 NSaved=  10.
 NSaved=10 IEnMin=10 EnMin= -7407.70601728072     IErMin=10 ErrMin= 1.46D-05
 ErrMax= 1.46D-05  0.00D+00 EMaxC= 1.00D-01 BMatC= 5.70D-08 BMatP= 1.96D-07
 IDIUse=1 WtCom= 1.00D+00 WtEn= 0.00D+00
 Coeff-Com:  0.372D-02-0.738D-02 0.227D-02 0.226D-01 0.261D-01-0.131D-01
 Coeff-Com: -0.274D+00-0.117D+00 0.207D+00 0.115D+01
 Coeff:      0.372D-02-0.738D-02 0.227D-02 0.226D-01 0.261D-01-0.131D-01
 Coeff:     -0.274D+00-0.117D+00 0.207D+00 0.115D+01
 Gap=     0.180 Goal=   None    Shift=    0.000
 RMSDP=1.29D-06 MaxDP=8.50D-05 DE=-2.10D-06 OVMax= 8.92D-04

 Cycle  11  Pass 1  IDiag  1:
 RMSU=  2.73D-07    CP:  9.87D-01  2.29D+00  1.29D+00  1.19D+00  1.09D+00
                    CP:  1.68D+00  2.15D+00  2.88D+00  2.58D+00  1.60D+00
 E= -7407.70601814411     Delta-E=       -0.000000863387 Rises=F Damp=F
 DIIS: error= 9.23D-06 at cycle  11 NSaved=  11.
 NSaved=11 IEnMin=11 EnMin= -7407.70601814411     IErMin=11 ErrMin= 9.23D-06
 ErrMax= 9.23D-06  0.00D+00 EMaxC= 1.00D-01 BMatC= 2.46D-08 BMatP= 5.70D-08
 IDIUse=1 WtCom= 1.00D+00 WtEn= 0.00D+00
 Coeff-Com: -0.119D-02 0.237D-02-0.129D-02-0.952D-02-0.358D-02 0.748D-01
 Coeff-Com:  0.123D+00-0.166D+00-0.634D+00 0.389D+00 0.123D+01
 Coeff:     -0.119D-02 0.237D-02-0.129D-02-0.952D-02-0.358D-02 0.748D-01
 Coeff:      0.123D+00-0.166D+00-0.634D+00 0.389D+00 0.123D+01
 Gap=     0.180 Goal=   None    Shift=    0.000
 RMSDP=1.15D-06 MaxDP=7.49D-05 DE=-8.63D-07 OVMax= 7.71D-04

 Cycle  12  Pass 1  IDiag  1:
 RMSU=  6.34D-07    CP:  9.87D-01  2.29D+00  1.28D+00  1.19D+00  1.10D+00
                    CP:  1.74D+00  2.34D+00  3.00D+00  3.00D+00  2.45D+00
                    CP:  1.54D+00
 E= -7407.70601851622     Delta-E=       -0.000000372111 Rises=F Damp=F
 DIIS: error= 2.70D-06 at cycle  12 NSaved=  12.
 NSaved=12 IEnMin=12 EnMin= -7407.70601851622     IErMin=12 ErrMin= 2.70D-06
 ErrMax= 2.70D-06  0.00D+00 EMaxC= 1.00D-01 BMatC= 5.35D-09 BMatP= 2.46D-08
 IDIUse=1 WtCom= 1.00D+00 WtEn= 0.00D+00
 Coeff-Com: -0.135D-02 0.270D-02-0.102D-02-0.930D-02-0.799D-02 0.379D-01
 Coeff-Com:  0.109D+00-0.342D-01-0.321D+00-0.714D-01 0.481D+00 0.816D+00
 Coeff:     -0.135D-02 0.270D-02-0.102D-02-0.930D-02-0.799D-02 0.379D-01
 Coeff:      0.109D+00-0.342D-01-0.321D+00-0.714D-01 0.481D+00 0.816D+00
 Gap=     0.180 Goal=   None    Shift=    0.000
 RMSDP=3.24D-07 MaxDP=2.10D-05 DE=-3.72D-07 OVMax= 2.10D-04

 Cycle  13  Pass 1  IDiag  1:
 RMSU=  1.01D-07    CP:  9.87D-01  2.29D+00  1.28D+00  1.19D+00  1.10D+00
                    CP:  1.76D+00  2.40D+00  3.00D+00  3.00D+00  2.68D+00
                    CP:  1.86D+00  1.36D+00
 E= -7407.70601855675     Delta-E=       -0.000000040534 Rises=F Damp=F
 DIIS: error= 1.13D-06 at cycle  13 NSaved=  13.
 NSaved=13 IEnMin=13 EnMin= -7407.70601855675     IErMin=13 ErrMin= 1.13D-06
 ErrMax= 1.13D-06  0.00D+00 EMaxC= 1.00D-01 BMatC= 1.44D-09 BMatP= 5.35D-09
 IDIUse=1 WtCom= 1.00D+00 WtEn= 0.00D+00
 Coeff-Com: -0.696D-04 0.136D-03 0.104D-03-0.298D-04-0.188D-02-0.111D-01
 Coeff-Com: -0.759D-02 0.491D-01 0.103D+00-0.150D+00-0.257D+00 0.314D+00
 Coeff-Com:  0.962D+00
 Coeff:     -0.696D-04 0.136D-03 0.104D-03-0.298D-04-0.188D-02-0.111D-01
 Coeff:     -0.759D-02 0.491D-01 0.103D+00-0.150D+00-0.257D+00 0.314D+00
 Coeff:      0.962D+00
 Gap=     0.180 Goal=   None    Shift=    0.000
 RMSDP=1.47D-07 MaxDP=8.61D-06 DE=-4.05D-08 OVMax= 9.21D-05

 Cycle  14  Pass 1  IDiag  1:
 RMSU=  6.38D-08    CP:  9.87D-01  2.29D+00  1.29D+00  1.19D+00  1.10D+00
                    CP:  1.77D+00  2.42D+00  3.00D+00  3.00D+00  2.78D+00
                    CP:  2.00D+00  1.50D+00  1.27D+00
 E= -7407.70601856556     Delta-E=       -0.000000008808 Rises=F Damp=F
 DIIS: error= 6.72D-07 at cycle  14 NSaved=  14.
 NSaved=14 IEnMin=14 EnMin= -7407.70601856556     IErMin=14 ErrMin= 6.72D-07
 ErrMax= 6.72D-07  0.00D+00 EMaxC= 1.00D-01 BMatC= 2.42D-10 BMatP= 1.44D-09
 IDIUse=1 WtCom= 1.00D+00 WtEn= 0.00D+00
 Coeff-Com:  0.237D-03-0.473D-03 0.223D-03 0.179D-02 0.890D-03-0.108D-01
 Coeff-Com: -0.237D-01 0.223D-01 0.935D-01-0.339D-01-0.180D+00-0.736D-01
 Coeff-Com:  0.286D+00 0.917D+00
 Coeff:      0.237D-03-0.473D-03 0.223D-03 0.179D-02 0.890D-03-0.108D-01
 Coeff:     -0.237D-01 0.223D-01 0.935D-01-0.339D-01-0.180D+00-0.736D-01
 Coeff:      0.286D+00 0.917D+00
 Gap=     0.180 Goal=   None    Shift=    0.000
 RMSDP=6.58D-08 MaxDP=3.51D-06 DE=-8.81D-09 OVMax= 3.46D-05

 Cycle  15  Pass 1  IDiag  1:
 RMSU=  2.30D-08    CP:  9.87D-01  2.29D+00  1.29D+00  1.19D+00  1.10D+00
                    CP:  1.77D+00  2.43D+00  3.00D+00  3.00D+00  2.80D+00
                    CP:  2.05D+00  1.57D+00  1.48D+00  1.26D+00
 E= -7407.70601856718     Delta-E=       -0.000000001619 Rises=F Damp=F
 DIIS: error= 2.73D-07 at cycle  15 NSaved=  15.
 NSaved=15 IEnMin=15 EnMin= -7407.70601856718     IErMin=15 ErrMin= 2.73D-07
 ErrMax= 2.73D-07  0.00D+00 EMaxC= 1.00D-01 BMatC= 6.10D-11 BMatP= 2.42D-10
 IDIUse=1 WtCom= 1.00D+00 WtEn= 0.00D+00
 Coeff-Com:  0.100D-03-0.200D-03 0.628D-04 0.672D-03 0.705D-03-0.202D-02
 Coeff-Com: -0.722D-02-0.897D-04 0.156D-01 0.168D-01-0.191D-01-0.795D-01
 Coeff-Com: -0.769D-01 0.373D+00 0.778D+00
 Coeff:      0.100D-03-0.200D-03 0.628D-04 0.672D-03 0.705D-03-0.202D-02
 Coeff:     -0.722D-02-0.897D-04 0.156D-01 0.168D-01-0.191D-01-0.795D-01
 Coeff:     -0.769D-01 0.373D+00 0.778D+00
 Gap=     0.180 Goal=   None    Shift=    0.000
 RMSDP=1.45D-08 MaxDP=8.50D-07 DE=-1.62D-09 OVMax= 5.30D-06

 Cycle  16  Pass 1  IDiag  1:
 RMSU=  9.81D-09    CP:  9.87D-01  2.29D+00  1.29D+00  1.19D+00  1.10D+00
                    CP:  1.77D+00  2.43D+00  3.00D+00  3.00D+00  2.80D+00
                    CP:  2.05D+00  1.57D+00  1.49D+00  1.42D+00  1.05D+00
 E= -7407.70601856723     Delta-E=       -0.000000000058 Rises=F Damp=F
 DIIS: error= 1.28D-07 at cycle  16 NSaved=  16.
 NSaved=16 IEnMin=16 EnMin= -7407.70601856723     IErMin=16 ErrMin= 1.28D-07
 ErrMax= 1.28D-07  0.00D+00 EMaxC= 1.00D-01 BMatC= 1.46D-11 BMatP= 6.10D-11
 IDIUse=1 WtCom= 1.00D+00 WtEn= 0.00D+00
 Coeff-Com: -0.114D-04 0.229D-04-0.235D-04-0.120D-03 0.125D-03 0.139D-02
 Coeff-Com:  0.246D-02-0.507D-02-0.152D-01 0.143D-01 0.306D-01-0.134D-01
 Coeff-Com: -0.101D+00-0.471D-01 0.301D+00 0.832D+00
 Coeff:     -0.114D-04 0.229D-04-0.235D-04-0.120D-03 0.125D-03 0.139D-02
 Coeff:      0.246D-02-0.507D-02-0.152D-01 0.143D-01 0.306D-01-0.134D-01
 Coeff:     -0.101D+00-0.471D-01 0.301D+00 0.832D+00
 Gap=     0.180 Goal=   None    Shift=    0.000
 RMSDP=9.83D-09 MaxDP=5.06D-07 DE=-5.82D-11 OVMax= 3.85D-06

 SCF Done:  E(RLC-B+HF-LYP) =  -7407.70601857     A.U. after   16 cycles
            NFock= 16  Conv=0.98D-08     -V/T= 2.0059
 KE= 7.364328455802D+03 PE=-5.631587552799D+04 EE= 2.211732482369D+04
 Leave Link  502 at Tue May 20 15:14:22 2025, MaxMem=  4294967296 cpu:      7502.5
 (Enter /home/sergey/g09/l601.exe)
 Copying SCF densities to generalized density rwf, IOpCl= 0 IROHF=0.
 Hyperfine terms turned off by default for NAtoms > 100.

 **********************************************************************

            Population analysis using the SCF density.

 **********************************************************************

 Orbital symmetries:
       Occupied  (A) (A) (A) (A) (A) (A) (A) (A) (A) (A) (A) (A)
                 (A) (A) (A) (A) (A) (A) (A) (A) (A) (A) (A) (A)
                 (A) (A) (A) (A) (A) (A) (A) (A) (A) (A) (A) (A)
                 (A) (A) (A) (A) (A) (A) (A) (A) (A) (A) (A) (A)
                 (A) (A) (A) (A) (A) (A) (A) (A) (A) (A) (A) (A)
                 (A) (A) (A) (A) (A) (A) (A) (A) (A) (A) (A) (A)
                 (A) (A) (A) (A) (A) (A) (A) (A) (A) (A) (A) (A)
                 (A) (A) (A) (A) (A) (A) (A) (A) (A) (A) (A) (A)
                 (A) (A) (A) (A) (A) (A) (A) (A) (A) (A) (A) (A)
                 (A) (A) (A) (A) (A) (A) (A) (A) (A) (A) (A) (A)
                 (A) (A) (A) (A) (A) (A) (A) (A) (A) (A) (A) (A)
                 (A) (A) (A) (A) (A) (A) (A) (A) (A) (A) (A) (A)
                 (A) (A) (A) (A) (A) (A) (A) (A) (A) (A) (A) (A)
                 (A) (A) (A) (A) (A) (A) (A) (A) (A) (A) (A) (A)
                 (A) (A) (A) (A) (A) (A) (A) (A) (A) (A) (A) (A)
                 (A) (A) (A) (A) (A) (A) (A) (A) (A) (A) (A) (A)
                 (A) (A) (A) (A) (A) (A) (A) (A) (A) (A) (A) (A)
                 (A) (A) (A) (A) (A) (A) (A) (A) (A) (A) (A) (A)
                 (A) (A) (A) (A) (A) (A) (A) (A) (A) (A) (A) (A)
                 (A) (A) (A) (A) (A) (A) (A) (A) (A) (A) (A) (A)
                 (A) (A) (A) (A) (A) (A) (A) (A) (A) (A) (A) (A)
                 (A) (A) (A) (A) (A) (A) (A) (A) (A) (A) (A) (A)
                 (A) (A) (A) (A) (A) (A) (A) (A) (A) (A) (A) (A)
                 (A) (A) (A) (A) (A) (A) (A) (A) (A) (A) (A) (A)
                 (A) (A) (A) (A) (A) (A) (A) (A) (A) (A) (A) (A)
                 (A) (A) (A) (A) (A) (A) (A) (A) (A) (A) (A) (A)
                 (A) (A) (A) (A) (A) (A) (A) (A) (A) (A) (A) (A)
                 (A) (A) (A) (A) (A) (A) (A) (A) (A) (A) (A) (A)
       Virtual   (A) (A) (A) (A) (A) (A) (A) (A) (A) (A) (A) (A)
                 (A) (A) (A) (A) (A) (A) (A) (A) (A) (A) (A) (A)
                 (A) (A) (A) (A) (A) (A) (A) (A) (A) (A) (A) (A)
                 (A) (A) (A) (A) (A) (A) (A) (A) (A) (A) (A) (A)
                 (A) (A) (A) (A) (A) (A) (A) (A) (A) (A) (A) (A)
                 (A) (A) (A) (A) (A) (A) (A) (A) (A) (A) (A) (A)
                 (A) (A) (A) (A) (A) (A) (A) (A) (A) (A) (A) (A)
                 (A) (A) (A) (A) (A) (A) (A) (A) (A) (A) (A) (A)
                 (A) (A) (A) (A) (A) (A) (A) (A) (A) (A) (A) (A)
                 (A) (A) (A) (A) (A) (A) (A) (A) (A) (A) (A) (A)
                 (A) (A) (A) (A) (A) (A) (A) (A) (A) (A) (A) (A)
                 (A) (A) (A) (A) (A) (A) (A) (A) (A) (A) (A) (A)
                 (A) (A) (A) (A) (A) (A) (A) (A) (A) (A) (A) (A)
                 (A) (A) (A) (A) (A) (A) (A) (A) (A) (A) (A) (A)
                 (A) (A) (A) (A) (A) (A) (A) (A) (A) (A) (A) (A)
                 (A) (A) (A) (A) (A) (A) (A) (A) (A) (A) (A) (A)
                 (A) (A) (A) (A) (A) (A) (A) (A) (A) (A) (A) (A)
                 (A) (A) (A) (A) (A) (A) (A) (A) (A) (A) (A) (A)
                 (A) (A) (A) (A) (A) (A) (A) (A) (A) (A) (A) (A)
                 (A) (A) (A) (A) (A) (A) (A) (A) (A) (A) (A) (A)
                 (A) (A) (A) (A) (A) (A) (A) (A) (A) (A) (A) (A)
                 (A) (A) (A) (A) (A) (A) (A) (A) (A) (A) (A) (A)
                 (A) (A) (A) (A) (A) (A) (A) (A) (A) (A) (A) (A)
                 (A) (A) (A) (A) (A) (A) (A) (A) (A) (A) (A) (A)
                 (A) (A) (A) (A) (A) (A) (A) (A) (A) (A) (A) (A)
                 (A) (A) (A) (A) (A) (A) (A) (A) (A) (A) (A) (A)
                 (A) (A) (A) (A) (A) (A) (A) (A) (A) (A) (A) (A)
                 (A) (A) (A) (A) (A) (A) (A) (A) (A) (A) (A) (A)
                 (A) (A) (A) (A) (A) (A) (A) (A) (A) (A) (A) (A)
                 (A) (A) (A) (A) (A) (A) (A) (A) (A) (A) (A) (A)
                 (A) (A) (A) (A) (A) (A) (A) (A) (A) (A) (A) (A)
                 (A) (A) (A) (A) (A) (A) (A) (A) (A) (A) (A) (A)
                 (A) (A) (A) (A) (A) (A) (A) (A) (A) (A) (A) (A)
                 (A) (A) (A) (A) (A) (A) (A) (A) (A) (A) (A) (A)
                 (A) (A) (A) (A) (A) (A) (A) (A) (A) (A) (A) (A)
                 (A) (A) (A) (A) (A) (A) (A) (A) (A) (A) (A) (A)
                 (A) (A) (A) (A) (A) (A) (A) (A) (A) (A) (A) (A)
                 (A) (A) (A) (A) (A) (A) (A) (A) (A) (A) (A) (A)
                 (A) (A) (A) (A) (A) (A) (A) (A) (A) (A) (A) (A)
                 (A) (A) (A) (A) (A) (A) (A) (A) (A) (A) (A) (A)
                 (A) (A) (A) (A) (A) (A) (A) (A) (A) (A) (A) (A)
                 (A) (A) (A) (A) (A) (A) (A) (A) (A) (A) (A) (A)
                 (A) (A) (A) (A) (A) (A) (A) (A) (A) (A) (A) (A)
                 (A) (A) (A) (A) (A) (A) (A) (A) (A) (A) (A) (A)
                 (A) (A) (A) (A) (A) (A) (A) (A) (A) (A) (A) (A)
                 (A) (A) (A) (A) (A) (A) (A) (A) (A) (A) (A) (A)
                 (A) (A) (A) (A) (A) (A) (A) (A) (A) (A) (A) (A)
                 (A) (A) (A) (A) (A) (A) (A) (A) (A) (A) (A) (A)
                 (A) (A) (A) (A) (A) (A) (A) (A) (A) (A) (A) (A)
                 (A) (A) (A) (A) (A) (A) (A) (A) (A) (A) (A) (A)
                 (A) (A) (A) (A) (A) (A) (A) (A) (A) (A) (A) (A)
                 (A) (A) (A) (A) (A) (A) (A) (A) (A) (A) (A) (A)
                 (A) (A) (A) (A) (A) (A) (A) (A) (A) (A) (A) (A)
                 (A) (A) (A) (A) (A) (A) (A) (A) (A) (A) (A) (A)
                 (A) (A) (A) (A) (A) (A) (A) (A) (A) (A) (A) (A)
                 (A) (A) (A) (A) (A) (A) (A) (A) (A) (A) (A) (A)
                 (A) (A) (A) (A) (A) (A) (A) (A) (A) (A) (A) (A)
                 (A) (A) (A) (A) (A) (A) (A) (A) (A) (A) (A) (A)
                 (A) (A) (A) (A) (A) (A) (A) (A) (A) (A) (A) (A)
                 (A) (A) (A) (A) (A) (A) (A) (A) (A) (A) (A) (A)
                 (A) (A) (A) (A) (A) (A) (A) (A) (A) (A) (A) (A)
                 (A) (A) (A) (A) (A) (A) (A) (A) (A) (A) (A) (A)
                 (A) (A) (A) (A) (A) (A) (A) (A) (A) (A) (A) (A)
                 (A) (A) (A) (A) (A) (A) (A) (A) (A) (A) (A) (A)
                 (A) (A) (A) (A) (A) (A) (A) (A) (A) (A) (A) (A)
                 (A) (A) (A) (A) (A) (A) (A) (A) (A) (A) (A) (A)
                 (A) (A) (A) (A) (A) (A) (A) (A) (A) (A) (A) (A)
                 (A) (A) (A) (A) (A) (A) (A) (A) (A) (A) (A) (A)
                 (A) (A) (A) (A) (A) (A) (A) (A) (A) (A) (A) (A)
                 (A) (A) (A) (A) (A) (A) (A) (A) (A) (A) (A) (A)
                 (A) (A) (A) (A) (A) (A) (A) (A) (A) (A) (A) (A)
                 (A) (A) (A) (A) (A) (A) (A) (A) (A) (A) (A) (A)
                 (A) (A) (A) (A) (A) (A) (A) (A) (A) (A) (A) (A)
                 (A) (A) (A) (A) (A) (A) (A) (A) (A) (A) (A) (A)
                 (A) (A) (A) (A) (A) (A) (A) (A) (A) (A) (A) (A)
                 (A) (A) (A) (A) (A) (A) (A) (A) (A) (A) (A) (A)
                 (A) (A) (A) (A) (A) (A) (A) (A) (A) (A) (A) (A)
                 (A) (A) (A) (A) (A) (A) (A) (A) (A) (A) (A) (A)
                 (A) (A) (A) (A) (A) (A) (A) (A) (A) (A) (A) (A)
                 (A) (A) (A) (A) (A) (A) (A) (A) (A) (A) (A) (A)
                 (A) (A) (A) (A) (A) (A) (A) (A) (A) (A) (A) (A)
                 (A) (A) (A) (A) (A) (A) (A) (A) (A) (A) (A) (A)
                 (A) (A) (A) (A) (A) (A) (A) (A) (A) (A) (A) (A)
                 (A) (A) (A) (A) (A) (A) (A) (A) (A) (A) (A) (A)
                 (A) (A) (A) (A) (A) (A) (A) (A) (A) (A) (A) (A)
                 (A) (A) (A) (A) (A) (A) (A) (A) (A) (A) (A) (A)
                 (A) (A) (A) (A) (A) (A) (A) (A) (A) (A) (A) (A)
                 (A) (A) (A) (A) (A) (A) (A) (A) (A) (A) (A) (A)
                 (A) (A) (A) (A) (A) (A) (A) (A) (A) (A) (A) (A)
                 (A) (A) (A) (A) (A) (A) (A) (A) (A) (A) (A) (A)
                 (A) (A) (A) (A) (A) (A) (A) (A) (A) (A) (A) (A)
                 (A) (A) (A) (A) (A) (A) (A) (A) (A) (A) (A) (A)
                 (A) (A) (A) (A) (A) (A) (A) (A) (A) (A) (A) (A)
                 (A) (A) (A) (A) (A) (A) (A) (A) (A) (A) (A) (A)
                 (A) (A) (A) (A) (A) (A) (A) (A) (A) (A) (A) (A)
                 (A) (A) (A) (A) (A) (A) (A) (A) (A) (A) (A) (A)
                 (A) (A) (A) (A) (A) (A) (A) (A) (A) (A) (A) (A)
                 (A) (A) (A) (A) (A) (A) (A) (A) (A) (A) (A) (A)
                 (A) (A) (A) (A) (A) (A) (A) (A) (A) (A) (A) (A)
                 (A) (A) (A) (A) (A) (A) (A) (A) (A) (A) (A) (A)
                 (A) (A) (A) (A) (A) (A) (A) (A) (A) (A) (A) (A)
                 (A) (A)
 The electronic state is 1-A.
 Alpha  occ. eigenvalues -- -345.97348-345.97348 -41.85302 -41.85302 -36.94656
 Alpha  occ. eigenvalues --  -36.94655 -36.94410 -36.94410 -36.94384 -36.94384
 Alpha  occ. eigenvalues --  -14.30633 -14.30632 -14.24415 -14.24413 -14.21845
 Alpha  occ. eigenvalues --  -14.21844 -14.21722 -14.21721 -14.21659 -14.21658
 Alpha  occ. eigenvalues --  -14.21508 -14.21508 -14.21471 -14.21471 -14.21387
 Alpha  occ. eigenvalues --  -14.21387 -14.21312 -14.21312 -14.21241 -14.21240
 Alpha  occ. eigenvalues --  -10.21303 -10.21301 -10.19226 -10.19225 -10.19216
 Alpha  occ. eigenvalues --  -10.19215 -10.19086 -10.19085 -10.18997 -10.18996
 Alpha  occ. eigenvalues --  -10.18880 -10.18879 -10.18867 -10.18867 -10.18816
 Alpha  occ. eigenvalues --  -10.18815 -10.18785 -10.18785 -10.18759 -10.18758
 Alpha  occ. eigenvalues --  -10.16880 -10.16879 -10.15842 -10.15841 -10.15334
 Alpha  occ. eigenvalues --  -10.15334 -10.14411 -10.14409 -10.13894 -10.13894
 Alpha  occ. eigenvalues --  -10.13548 -10.13548 -10.13086 -10.13076 -10.13056
 Alpha  occ. eigenvalues --  -10.13049 -10.12883 -10.12882 -10.12855 -10.12854
 Alpha  occ. eigenvalues --  -10.12756 -10.12756 -10.12752 -10.12751 -10.12735
 Alpha  occ. eigenvalues --  -10.12734 -10.12732 -10.12732 -10.12688 -10.12687
 Alpha  occ. eigenvalues --  -10.12672 -10.12672 -10.12646 -10.12646 -10.12592
 Alpha  occ. eigenvalues --  -10.12591 -10.12570 -10.12570 -10.12527 -10.12527
 Alpha  occ. eigenvalues --  -10.12458 -10.12458 -10.12427 -10.12426 -10.12275
 Alpha  occ. eigenvalues --  -10.12275 -10.12254 -10.12253 -10.12226 -10.12225
 Alpha  occ. eigenvalues --  -10.12209 -10.12209  -4.77372  -4.77372  -3.21418
 Alpha  occ. eigenvalues --   -3.21417  -3.21049  -3.21049  -3.20996  -3.20996
 Alpha  occ. eigenvalues --   -1.18399  -1.18397  -1.13347  -1.13330  -1.11978
 Alpha  occ. eigenvalues --   -1.11936  -1.11811  -1.11810  -1.09113  -1.09082
 Alpha  occ. eigenvalues --   -1.06587  -1.06579  -1.04686  -1.04683  -1.02596
 Alpha  occ. eigenvalues --   -1.02566  -1.02445  -1.02432  -1.00586  -1.00567
 Alpha  occ. eigenvalues --   -0.99356  -0.99345  -0.98627  -0.98626  -0.98520
 Alpha  occ. eigenvalues --   -0.98519  -0.98064  -0.98061  -0.93485  -0.93265
 Alpha  occ. eigenvalues --   -0.90399  -0.90270  -0.89219  -0.89200  -0.88908
 Alpha  occ. eigenvalues --   -0.88788  -0.88721  -0.88633  -0.88432  -0.88403
 Alpha  occ. eigenvalues --   -0.88372  -0.88364  -0.88175  -0.88171  -0.88107
 Alpha  occ. eigenvalues --   -0.88106  -0.86772  -0.86708  -0.84342  -0.84312
 Alpha  occ. eigenvalues --   -0.81596  -0.81534  -0.81355  -0.81353  -0.77655
 Alpha  occ. eigenvalues --   -0.77509  -0.76312  -0.76262  -0.75875  -0.75847
 Alpha  occ. eigenvalues --   -0.75651  -0.75632  -0.75197  -0.75175  -0.74774
 Alpha  occ. eigenvalues --   -0.74702  -0.74311  -0.74311  -0.73012  -0.72947
 Alpha  occ. eigenvalues --   -0.71732  -0.71712  -0.71169  -0.71100  -0.70892
 Alpha  occ. eigenvalues --   -0.70837  -0.70428  -0.70424  -0.68838  -0.68645
 Alpha  occ. eigenvalues --   -0.67777  -0.67599  -0.66994  -0.66988  -0.66359
 Alpha  occ. eigenvalues --   -0.66354  -0.65434  -0.65411  -0.65173  -0.65151
 Alpha  occ. eigenvalues --   -0.64993  -0.64983  -0.63503  -0.63484  -0.61632
 Alpha  occ. eigenvalues --   -0.61621  -0.61422  -0.61419  -0.61150  -0.60617
 Alpha  occ. eigenvalues --   -0.60315  -0.60031  -0.59923  -0.59914  -0.59761
 Alpha  occ. eigenvalues --   -0.59634  -0.59559  -0.59540  -0.59270  -0.59199
 Alpha  occ. eigenvalues --   -0.59137  -0.58728  -0.58585  -0.58572  -0.58270
 Alpha  occ. eigenvalues --   -0.58268  -0.58209  -0.58175  -0.57778  -0.57684
 Alpha  occ. eigenvalues --   -0.57299  -0.57294  -0.57251  -0.57057  -0.56770
 Alpha  occ. eigenvalues --   -0.56643  -0.56356  -0.56293  -0.56200  -0.56162
 Alpha  occ. eigenvalues --   -0.56109  -0.55937  -0.55907  -0.55821  -0.55463
 Alpha  occ. eigenvalues --   -0.55459  -0.55400  -0.55374  -0.55145  -0.55144
 Alpha  occ. eigenvalues --   -0.54884  -0.54665  -0.54660  -0.54468  -0.54460
 Alpha  occ. eigenvalues --   -0.54431  -0.54147  -0.54124  -0.53985  -0.53925
 Alpha  occ. eigenvalues --   -0.53759  -0.53711  -0.52953  -0.52909  -0.52209
 Alpha  occ. eigenvalues --   -0.51979  -0.50525  -0.50405  -0.49716  -0.49513
 Alpha  occ. eigenvalues --   -0.49393  -0.49042  -0.48789  -0.48785  -0.48732
 Alpha  occ. eigenvalues --   -0.48716  -0.47888  -0.47888  -0.47690  -0.47687
 Alpha  occ. eigenvalues --   -0.47002  -0.46991  -0.46819  -0.46800  -0.46682
 Alpha  occ. eigenvalues --   -0.46423  -0.45977  -0.45947  -0.45752  -0.45741
 Alpha  occ. eigenvalues --   -0.44903  -0.44900  -0.44338  -0.44253  -0.44213
 Alpha  occ. eigenvalues --   -0.44196  -0.43932  -0.43870  -0.42794  -0.42490
 Alpha  occ. eigenvalues --   -0.42382  -0.42124  -0.41297  -0.41287  -0.41063
 Alpha  occ. eigenvalues --   -0.41048  -0.38586  -0.38329  -0.38317  -0.38292
 Alpha  occ. eigenvalues --   -0.38260  -0.37759  -0.37482  -0.36926  -0.36608
 Alpha  occ. eigenvalues --   -0.36588  -0.35878  -0.35780  -0.35413  -0.35388
 Alpha  occ. eigenvalues --   -0.35166  -0.35117  -0.34920  -0.34798  -0.34781
 Alpha  occ. eigenvalues --   -0.34737  -0.34577  -0.34296  -0.34255  -0.34225
 Alpha  occ. eigenvalues --   -0.34166  -0.33618  -0.32291  -0.32269  -0.23149
 Alpha  occ. eigenvalues --   -0.22693
 Alpha virt. eigenvalues --   -0.04715  -0.04558  -0.04373  -0.04256   0.03625
 Alpha virt. eigenvalues --    0.03645   0.04402   0.04788   0.05768   0.05880
 Alpha virt. eigenvalues --    0.06376   0.06407   0.06431   0.06459   0.08100
 Alpha virt. eigenvalues --    0.08354   0.10687   0.11215   0.11702   0.11715
 Alpha virt. eigenvalues --    0.11755   0.11900   0.12025   0.12188   0.12622
 Alpha virt. eigenvalues --    0.12817   0.13988   0.14455   0.14988   0.15116
 Alpha virt. eigenvalues --    0.15247   0.15347   0.15471   0.15482   0.15713
 Alpha virt. eigenvalues --    0.15906   0.15925   0.16072   0.16085   0.16382
 Alpha virt. eigenvalues --    0.16413   0.17510   0.17599   0.18065   0.18142
 Alpha virt. eigenvalues --    0.18228   0.18636   0.18766   0.19294   0.19335
 Alpha virt. eigenvalues --    0.19492   0.20080   0.20219   0.20337   0.20486
 Alpha virt. eigenvalues --    0.20789   0.21297   0.21448   0.21577   0.21785
 Alpha virt. eigenvalues --    0.21879   0.22211   0.22227   0.22446   0.22499
 Alpha virt. eigenvalues --    0.22621   0.22692   0.22823   0.23514   0.23616
 Alpha virt. eigenvalues --    0.24301   0.24323   0.25126   0.25192   0.25325
 Alpha virt. eigenvalues --    0.25499   0.25838   0.25858   0.26068   0.26407
 Alpha virt. eigenvalues --    0.26789   0.26902   0.27433   0.27796   0.28076
 Alpha virt. eigenvalues --    0.28087   0.28939   0.29060   0.29239   0.29256
 Alpha virt. eigenvalues --    0.29550   0.29588   0.29706   0.29738   0.29866
 Alpha virt. eigenvalues --    0.30600   0.30907   0.31387   0.31578   0.31748
 Alpha virt. eigenvalues --    0.31823   0.31973   0.32819   0.33024   0.33175
 Alpha virt. eigenvalues --    0.33262   0.33326   0.33812   0.33891   0.33916
 Alpha virt. eigenvalues --    0.34568   0.34919   0.35164   0.35266   0.35357
 Alpha virt. eigenvalues --    0.35521   0.35608   0.35794   0.35857   0.36144
 Alpha virt. eigenvalues --    0.36194   0.36288   0.36592   0.36894   0.36945
 Alpha virt. eigenvalues --    0.37034   0.37052   0.37380   0.37504   0.37618
 Alpha virt. eigenvalues --    0.37850   0.37917   0.38124   0.38340   0.38779
 Alpha virt. eigenvalues --    0.39092   0.39177   0.39659   0.40014   0.40088
 Alpha virt. eigenvalues --    0.40208   0.40332   0.40496   0.40786   0.41151
 Alpha virt. eigenvalues --    0.41368   0.41503   0.41592   0.41717   0.42110
 Alpha virt. eigenvalues --    0.42156   0.42288   0.42485   0.42565   0.42582
 Alpha virt. eigenvalues --    0.42754   0.42810   0.43123   0.43134   0.43193
 Alpha virt. eigenvalues --    0.43358   0.43738   0.43909   0.43929   0.44258
 Alpha virt. eigenvalues --    0.44710   0.44839   0.45175   0.45194   0.45377
 Alpha virt. eigenvalues --    0.45506   0.45857   0.46218   0.46323   0.46590
 Alpha virt. eigenvalues --    0.47167   0.47358   0.47601   0.48059   0.48079
 Alpha virt. eigenvalues --    0.48134   0.48186   0.48524   0.48589   0.48599
 Alpha virt. eigenvalues --    0.48697   0.48785   0.49016   0.49278   0.49279
 Alpha virt. eigenvalues --    0.49446   0.49604   0.49781   0.49828   0.49900
 Alpha virt. eigenvalues --    0.50445   0.50891   0.50954   0.51399   0.51630
 Alpha virt. eigenvalues --    0.51830   0.52139   0.52379   0.52817   0.53137
 Alpha virt. eigenvalues --    0.53260   0.53488   0.53700   0.53913   0.54081
 Alpha virt. eigenvalues --    0.54224   0.54461   0.54563   0.54815   0.54824
 Alpha virt. eigenvalues --    0.55036   0.55321   0.55701   0.55865   0.56017
 Alpha virt. eigenvalues --    0.56151   0.56154   0.56239   0.56438   0.56487
 Alpha virt. eigenvalues --    0.56612   0.56782   0.56904   0.57339   0.57469
 Alpha virt. eigenvalues --    0.57503   0.57547   0.57749   0.57855   0.57954
 Alpha virt. eigenvalues --    0.58002   0.58391   0.58492   0.58689   0.59062
 Alpha virt. eigenvalues --    0.59110   0.59290   0.59308   0.59501   0.59552
 Alpha virt. eigenvalues --    0.59767   0.59810   0.59891   0.60005   0.60088
 Alpha virt. eigenvalues --    0.60163   0.60388   0.60391   0.60545   0.60753
 Alpha virt. eigenvalues --    0.61015   0.61295   0.61339   0.61504   0.61842
 Alpha virt. eigenvalues --    0.62033   0.62308   0.62449   0.62528   0.62850
 Alpha virt. eigenvalues --    0.62950   0.63086   0.63115   0.63303   0.63545
 Alpha virt. eigenvalues --    0.63709   0.63962   0.64097   0.64836   0.65020
 Alpha virt. eigenvalues --    0.65330   0.65364   0.65575   0.65805   0.66275
 Alpha virt. eigenvalues --    0.66470   0.66950   0.67033   0.67150   0.67481
 Alpha virt. eigenvalues --    0.67624   0.67884   0.68066   0.68138   0.68199
 Alpha virt. eigenvalues --    0.68428   0.69309   0.69434   0.69954   0.70184
 Alpha virt. eigenvalues --    0.70240   0.70324   0.70463   0.70854   0.70890
 Alpha virt. eigenvalues --    0.70945   0.71107   0.71319   0.71343   0.71393
 Alpha virt. eigenvalues --    0.71839   0.71918   0.72039   0.72116   0.72243
 Alpha virt. eigenvalues --    0.72387   0.72448   0.72769   0.72922   0.73321
 Alpha virt. eigenvalues --    0.73338   0.73546   0.73656   0.73747   0.73762
 Alpha virt. eigenvalues --    0.74017   0.74031   0.74297   0.74338   0.74540
 Alpha virt. eigenvalues --    0.74709   0.74918   0.74941   0.75154   0.75332
 Alpha virt. eigenvalues --    0.75402   0.75404   0.75829   0.75865   0.75868
 Alpha virt. eigenvalues --    0.76063   0.76387   0.76518   0.76813   0.76872
 Alpha virt. eigenvalues --    0.77114   0.77204   0.77394   0.77850   0.77936
 Alpha virt. eigenvalues --    0.78114   0.78310   0.78517   0.78531   0.78710
 Alpha virt. eigenvalues --    0.78762   0.78936   0.79051   0.79148   0.79244
 Alpha virt. eigenvalues --    0.79438   0.79675   0.79727   0.79828   0.79907
 Alpha virt. eigenvalues --    0.79995   0.80506   0.80639   0.80743   0.81027
 Alpha virt. eigenvalues --    0.81185   0.81217   0.81235   0.81369   0.81550
 Alpha virt. eigenvalues --    0.81550   0.81693   0.81741   0.81832   0.82004
 Alpha virt. eigenvalues --    0.82151   0.82417   0.82621   0.82648   0.82832
 Alpha virt. eigenvalues --    0.82946   0.83446   0.83689   0.83755   0.83757
 Alpha virt. eigenvalues --    0.83978   0.83992   0.84250   0.84838   0.84840
 Alpha virt. eigenvalues --    0.85232   0.85316   0.85536   0.85638   0.86040
 Alpha virt. eigenvalues --    0.86280   0.86411   0.86691   0.86736   0.86833
 Alpha virt. eigenvalues --    0.86884   0.87177   0.87183   0.87385   0.87547
 Alpha virt. eigenvalues --    0.87681   0.87808   0.87822   0.87856   0.88296
 Alpha virt. eigenvalues --    0.88620   0.88754   0.88853   0.89215   0.89261
 Alpha virt. eigenvalues --    0.89729   0.89824   0.89986   0.90112   0.90526
 Alpha virt. eigenvalues --    0.90565   0.90821   0.90823   0.91408   0.91482
 Alpha virt. eigenvalues --    0.91996   0.92200   0.92385   0.92725   0.93028
 Alpha virt. eigenvalues --    0.93421   0.93497   0.93648   0.93665   0.94091
 Alpha virt. eigenvalues --    0.94602   0.94666   0.94855   0.95008   0.95479
 Alpha virt. eigenvalues --    0.96113   0.96358   0.96368   0.96942   0.97093
 Alpha virt. eigenvalues --    0.97699   0.97833   0.98671   0.99074   0.99300
 Alpha virt. eigenvalues --    0.99914   1.00269   1.00824   1.01323   1.01495
 Alpha virt. eigenvalues --    1.01682   1.01824   1.02358   1.02669   1.03158
 Alpha virt. eigenvalues --    1.03595   1.03849   1.03994   1.04399   1.04567
 Alpha virt. eigenvalues --    1.04927   1.04991   1.05013   1.05062   1.05328
 Alpha virt. eigenvalues --    1.05582   1.05729   1.06335   1.06341   1.06776
 Alpha virt. eigenvalues --    1.06869   1.07375   1.07385   1.07794   1.08279
 Alpha virt. eigenvalues --    1.08325   1.08728   1.08988   1.09125   1.09571
 Alpha virt. eigenvalues --    1.09996   1.10403   1.10547   1.10668   1.11252
 Alpha virt. eigenvalues --    1.11273   1.11634   1.11844   1.12019   1.12401
 Alpha virt. eigenvalues --    1.12926   1.13391   1.13649   1.14147   1.14356
 Alpha virt. eigenvalues --    1.14593   1.15281   1.15537   1.15883   1.15911
 Alpha virt. eigenvalues --    1.16107   1.16436   1.16624   1.17696   1.17805
 Alpha virt. eigenvalues --    1.17949   1.18690   1.19168   1.19368   1.19458
 Alpha virt. eigenvalues --    1.19635   1.20411   1.20959   1.21258   1.21892
 Alpha virt. eigenvalues --    1.22330   1.22388   1.22886   1.23449   1.23516
 Alpha virt. eigenvalues --    1.24099   1.24739   1.24832   1.25835   1.26274
 Alpha virt. eigenvalues --    1.27754   1.28269   1.28620   1.28651   1.28977
 Alpha virt. eigenvalues --    1.29138   1.29612   1.30059   1.30370   1.30563
 Alpha virt. eigenvalues --    1.30811   1.31482   1.31659   1.31988   1.32125
 Alpha virt. eigenvalues --    1.32749   1.32963   1.33107   1.33264   1.33485
 Alpha virt. eigenvalues --    1.33831   1.34067   1.34278   1.34432   1.34595
 Alpha virt. eigenvalues --    1.34850   1.34912   1.35347   1.35452   1.35782
 Alpha virt. eigenvalues --    1.35877   1.35997   1.36089   1.36179   1.36564
 Alpha virt. eigenvalues --    1.36719   1.36882   1.36935   1.37150   1.37368
 Alpha virt. eigenvalues --    1.37405   1.37514   1.37644   1.37657   1.37702
 Alpha virt. eigenvalues --    1.37716   1.37863   1.37916   1.38486   1.38717
 Alpha virt. eigenvalues --    1.38728   1.39264   1.39459   1.39838   1.39928
 Alpha virt. eigenvalues --    1.39935   1.40061   1.40352   1.40618   1.40674
 Alpha virt. eigenvalues --    1.40885   1.40999   1.41021   1.41220   1.41373
 Alpha virt. eigenvalues --    1.41477   1.41770   1.41922   1.42058   1.42073
 Alpha virt. eigenvalues --    1.42987   1.43572   1.43881   1.43993   1.45343
 Alpha virt. eigenvalues --    1.45429   1.45496   1.45519   1.45696   1.46010
 Alpha virt. eigenvalues --    1.46198   1.46881   1.46945   1.47328   1.47618
 Alpha virt. eigenvalues --    1.47837   1.48514   1.49230   1.49372   1.49576
 Alpha virt. eigenvalues --    1.49624   1.50157   1.50336   1.50521   1.50675
 Alpha virt. eigenvalues --    1.50829   1.50930   1.51622   1.51966   1.52424
 Alpha virt. eigenvalues --    1.52863   1.53070   1.53412   1.53854   1.54099
 Alpha virt. eigenvalues --    1.54430   1.54846   1.55105   1.55733   1.55876
 Alpha virt. eigenvalues --    1.56342   1.56545   1.56781   1.56920   1.57889
 Alpha virt. eigenvalues --    1.58149   1.58631   1.59020   1.59236   1.59411
 Alpha virt. eigenvalues --    1.60495   1.60596   1.60951   1.61258   1.61768
 Alpha virt. eigenvalues --    1.62029   1.62763   1.62821   1.63303   1.63441
 Alpha virt. eigenvalues --    1.64433   1.64584   1.65148   1.65387   1.65965
 Alpha virt. eigenvalues --    1.66130   1.66364   1.67332   1.67695   1.68427
 Alpha virt. eigenvalues --    1.69090   1.69330   1.69946   1.70460   1.70808
 Alpha virt. eigenvalues --    1.70868   1.72332   1.72535   1.74351   1.74408
 Alpha virt. eigenvalues --    1.75081   1.75140   1.76486   1.76658   1.77199
 Alpha virt. eigenvalues --    1.77474   1.77769   1.78016   1.78551   1.79223
 Alpha virt. eigenvalues --    1.79447   1.79707   1.79845   1.80099   1.80109
 Alpha virt. eigenvalues --    1.80169   1.80200   1.80250   1.80266   1.80441
 Alpha virt. eigenvalues --    1.80548   1.80645   1.80740   1.80811   1.80958
 Alpha virt. eigenvalues --    1.81056   1.81684   1.81849   1.82496   1.82943
 Alpha virt. eigenvalues --    1.83583   1.83677   1.84038   1.84816   1.84960
 Alpha virt. eigenvalues --    1.85380   1.85503   1.86082   1.86120   1.86272
 Alpha virt. eigenvalues --    1.86561   1.86828   1.87193   1.87246   1.87352
 Alpha virt. eigenvalues --    1.87505   1.87506   1.87580   1.87667   1.87775
 Alpha virt. eigenvalues --    1.87794   1.87918   1.87998   1.88064   1.88091
 Alpha virt. eigenvalues --    1.88179   1.88381   1.88669   1.88822   1.88904
 Alpha virt. eigenvalues --    1.89071   1.89546   1.89715   1.89814   1.89925
 Alpha virt. eigenvalues --    1.90036   1.90280   1.90390   1.90471   1.90612
 Alpha virt. eigenvalues --    1.90752   1.90834   1.91005   1.91094   1.91109
 Alpha virt. eigenvalues --    1.91391   1.91541   1.91614   1.91681   1.91940
 Alpha virt. eigenvalues --    1.92012   1.92288   1.92828   1.92845   1.92870
 Alpha virt. eigenvalues --    1.93295   1.93309   1.93328   1.93710   1.94099
 Alpha virt. eigenvalues --    1.94131   1.94630   1.94816   1.95321   1.95581
 Alpha virt. eigenvalues --    1.96015   1.96480   1.96761   1.96997   1.97300
 Alpha virt. eigenvalues --    1.97645   1.98545   2.00299   2.00840   2.00911
 Alpha virt. eigenvalues --    2.01453   2.02343   2.02598   2.03299   2.03365
 Alpha virt. eigenvalues --    2.03535   2.03610   2.03898   2.03979   2.04267
 Alpha virt. eigenvalues --    2.04578   2.05149   2.05190   2.05533   2.05697
 Alpha virt. eigenvalues --    2.06065   2.06340   2.06590   2.06820   2.06922
 Alpha virt. eigenvalues --    2.07122   2.07203   2.07375   2.07514   2.07705
 Alpha virt. eigenvalues --    2.07748   2.07775   2.07876   2.08086   2.08139
 Alpha virt. eigenvalues --    2.08191   2.08376   2.08562   2.08694   2.09022
 Alpha virt. eigenvalues --    2.09382   2.09796   2.09811   2.10095   2.10394
 Alpha virt. eigenvalues --    2.10416   2.10594   2.10694   2.10810   2.10922
 Alpha virt. eigenvalues --    2.10976   2.11127   2.11353   2.11461   2.11556
 Alpha virt. eigenvalues --    2.11827   2.11929   2.12256   2.12482   2.12553
 Alpha virt. eigenvalues --    2.12726   2.13477   2.13576   2.13837   2.13914
 Alpha virt. eigenvalues --    2.14029   2.14645   2.14903   2.15002   2.15143
 Alpha virt. eigenvalues --    2.15412   2.15466   2.16029   2.16121   2.16298
 Alpha virt. eigenvalues --    2.17368   2.18018   2.18256   2.18835   2.19399
 Alpha virt. eigenvalues --    2.19973   2.20529   2.21292   2.21566   2.21654
[...]
 Alpha virt. eigenvalues --    3.69229   3.69308   3.69771   3.69779   3.70117
 Alpha virt. eigenvalues --    3.70659   3.71178   3.71808   3.71821   3.72188
 Alpha virt. eigenvalues --    3.72408   3.72911   3.73154   3.73326   3.73453
 Alpha virt. eigenvalues --    3.73570   3.74519   3.74539   3.75245   3.75656
 Alpha virt. eigenvalues --    3.75970   3.75993   3.76123   3.76273   3.76500
 Alpha virt. eigenvalues --    3.76892   3.77063   3.77587   3.77961   3.77965
 Alpha virt. eigenvalues --    3.78231   3.78592   3.79137   3.79152   3.79994
 Alpha virt. eigenvalues --    3.80335   3.80692   3.80789   3.81264   3.81450
 Alpha virt. eigenvalues --    3.82381   3.82543   3.82811   3.83121   3.83188
 Alpha virt. eigenvalues --    3.83573   3.83621   3.84370   3.84871   3.84913
 Alpha virt. eigenvalues --    3.85286   3.85477   3.85597   3.85908   3.86118
 Alpha virt. eigenvalues --    3.86976   3.88300   3.88721   3.89389   3.89662
 Alpha virt. eigenvalues --    3.90788   3.90833   3.92250   3.92955   3.93157
 Alpha virt. eigenvalues --    3.94012   3.94027   3.95146   3.96669   3.96689
 Alpha virt. eigenvalues --    3.97625   3.97990   3.98069   3.98880   3.99163
 Alpha virt. eigenvalues --    3.99389   3.99985   4.00482   4.01414   4.01541
 Alpha virt. eigenvalues --    4.02358   4.02524   4.02598   4.03035   4.03537
 Alpha virt. eigenvalues --    4.03829   4.04622   4.04701   4.05031   4.05101
 Alpha virt. eigenvalues --    4.05307   4.05313   4.05543   4.06217   4.07167
 Alpha virt. eigenvalues --    4.07612   4.08421   4.08892   4.09608   4.09869
 Alpha virt. eigenvalues --    4.10053   4.10075   4.10275   4.10294   4.10392
 Alpha virt. eigenvalues --    4.10434   4.11803   4.12054   4.12626   4.13360
 Alpha virt. eigenvalues --    4.14007   4.14175   4.15028   4.15317   4.16754
 Alpha virt. eigenvalues --    4.17260   4.18049   4.18354   4.20464   4.20610
 Alpha virt. eigenvalues --    4.21236   4.21330   4.22802   4.23663   4.24548
 Alpha virt. eigenvalues --    4.25057   4.25712   4.25904   4.26592   4.26696
 Alpha virt. eigenvalues --    4.28600   4.28643   4.28736   4.28810   4.28932
 Alpha virt. eigenvalues --    4.29058   4.29495   4.30881   4.33554   4.33724
 Alpha virt. eigenvalues --    4.34957   4.35206   4.35818   4.36201   4.36212
 Alpha virt. eigenvalues --    4.36327   4.36736   4.36839   4.37973   4.38490
 Alpha virt. eigenvalues --    4.38535   4.38802   4.39712   4.39800   4.41303
 Alpha virt. eigenvalues --    4.42989   4.43017   4.43222   4.44282   4.44578
 Alpha virt. eigenvalues --    4.45313   4.45689   4.47648   4.47883   4.50776
 Alpha virt. eigenvalues --    4.51105   4.52110   4.52244   4.52564   4.52995
 Alpha virt. eigenvalues --    4.54078   4.54179   4.63985   4.64103   4.64914
 Alpha virt. eigenvalues --    4.64950   4.65110   4.65150   4.68560   4.68995
 Alpha virt. eigenvalues --    4.69171   4.69203   4.80118   4.80219   4.80610
 Alpha virt. eigenvalues --    4.80694   4.82496   4.82632   4.85162   4.85180
 Alpha virt. eigenvalues --    4.86209   4.86221   4.87734   4.88148   4.89771
 Alpha virt. eigenvalues --    4.89798   4.90842   4.90951   4.91052   4.91082
 Alpha virt. eigenvalues --    4.94015   4.94077   4.98382   4.98585   4.99350
 Alpha virt. eigenvalues --    4.99406   4.99974   5.00456   5.01322   5.01581
 Alpha virt. eigenvalues --    5.04412   5.04770   5.05123   5.05619   5.05914
 Alpha virt. eigenvalues --    5.06016   5.06172   5.06256   5.06767   5.06844
 Alpha virt. eigenvalues --    5.07704   5.07977   5.08277   5.08386   5.08819
 Alpha virt. eigenvalues --    5.09234   5.09320   5.09694   5.10397   5.10451
 Alpha virt. eigenvalues --    5.12856   5.12923   5.15521   5.16040   5.17387
 Alpha virt. eigenvalues --    5.17624   5.20816   5.20858   5.22197   5.22218
 Alpha virt. eigenvalues --    5.22676   5.22940   5.24718   5.25026   5.25900
 Alpha virt. eigenvalues --    5.25930   5.29572   5.29601   5.35168   5.35215
 Alpha virt. eigenvalues --    5.36167   5.36200   5.36862   5.37062   5.38435
 Alpha virt. eigenvalues --    5.38621   5.40543   5.40680   5.42522   5.42689
 Alpha virt. eigenvalues --    5.46265   5.46550   5.46624   5.46652   5.48135
 Alpha virt. eigenvalues --    5.48617   5.48761   5.49261   5.51326   5.51574
 Alpha virt. eigenvalues --    5.52085   5.52561   5.60431   5.60513   5.62624
 Alpha virt. eigenvalues --    5.62675   5.65150   5.65253   5.67516   5.67817
 Alpha virt. eigenvalues --    5.70452   5.70499   5.70881   5.71268   5.72364
 Alpha virt. eigenvalues --    5.72951   5.74815   5.74903   5.81671   5.82308
 Alpha virt. eigenvalues --    5.86639   5.86647   6.66135   6.66149   6.66391
 Alpha virt. eigenvalues --    6.66394   6.66858   6.66879   6.72553   6.72573
 Alpha virt. eigenvalues --    6.74331   6.74347   6.75445   6.75459   6.75465
 Alpha virt. eigenvalues --    6.75522  21.69405  21.70679  21.76597  21.76792
 Alpha virt. eigenvalues --   21.78063  21.78134  21.86177  21.90226  21.94032
 Alpha virt. eigenvalues --   21.98519  22.01240  22.01426  22.07111  22.07434
 Alpha virt. eigenvalues --   22.09530  22.10827  22.11451  22.11613  22.16240
 Alpha virt. eigenvalues --   22.17665  22.19481  22.19819  22.20678  22.20819
 Alpha virt. eigenvalues --   22.21056  22.21215  22.21686  22.21709  22.22084
 Alpha virt. eigenvalues --   22.22100  22.27432  22.28173  22.32963  22.33099
 Alpha virt. eigenvalues --   22.33585  22.37360  22.39883  22.40578  22.48571
 Alpha virt. eigenvalues --   22.48580  22.48604  22.48615  22.49110  22.49128
 Alpha virt. eigenvalues --   22.55631  22.56145  22.60343  22.61558  22.61641
 Alpha virt. eigenvalues --   22.61708  22.63053  22.63479  22.64556  22.65784
 Alpha virt. eigenvalues --   22.68958  22.71216  22.76834  22.76913  22.76950
 Alpha virt. eigenvalues --   22.78718  22.84329  22.84535  22.85662  22.87222
 Alpha virt. eigenvalues --   23.33342  23.33389  23.37056  23.37101  23.37392
 Alpha virt. eigenvalues --   23.37667  23.43209  23.43711  32.19057  32.19401
 Alpha virt. eigenvalues --   32.20903  32.21351  32.25529  32.26420  32.32477
 Alpha virt. eigenvalues --   32.33187  32.40241  32.40299  32.45893  32.46497
 Alpha virt. eigenvalues --   32.59158  32.59268  32.60897  32.61536  32.61926
 Alpha virt. eigenvalues --   32.63044  32.67988  32.69166
          Condensed to atoms (all electrons):
 Mulliken charges:
               1
     1  C    0.122647
     2  C   -0.198393
     3  C   -0.378030
     4  C   -0.226926
     5  H    0.154244
     6  C    0.243299
     7  H    0.146860
     8  C    0.074768
     9  H    0.140659
    10  C    0.300030
    11  C    0.435826
    12  N   -0.363908
    13  N   -0.570105
    14  N   -0.567949
    15  Zn   0.158743
    16  C    0.374767
    17  C    0.367837
    18  N   -0.313191
    19  N   -0.350499
    20  N   -0.316600
    21  C    0.021951
    22  C    0.051514
    23  C    0.365706
    24  C    0.374548
    25  C    0.311984
    26  C    0.373560
    27  C    0.068491
    28  C   -0.201397
    29  C   -0.203809
    30  C    0.069838
    31  N   -0.562282
    32  C    0.071999
    33  C    0.092569
    34  N   -0.551866
    35  C   -0.199985
    36  C   -0.096799
    37  H    0.140337
    38  C   -0.095267
    39  H    0.144170
    40  C   -0.196856
    41  C   -0.198714
    42  C   -0.200975
    43  C   -0.096389
    44  H    0.143162
    45  H    0.122901
    46  C   -0.095913
    47  H    0.124166
    48  H    0.143675
    49  C   -0.093882
    50  H    0.145225
    51  C   -0.096363
    52  H    0.144945
    53  H    0.123101
    54  H    0.123717
    55  H    0.124871
    56  H    0.124805
    57  C    0.381607
    58  N   -0.359354
    59  N   -0.225505
    60  C   -0.050042
    61  C   -0.031202
    62  C   -0.364270
    63  H    0.179763
    64  H    0.163119
    65  H    0.172121
    66  H    0.202755
    67  H    0.180404
    68  C    0.122597
    69  C   -0.198393
    70  C   -0.377655
    71  C   -0.226932
    72  H    0.154240
    73  C    0.243019
    74  H    0.146878
    75  C    0.074750
    76  H    0.140654
    77  C    0.300026
    78  C    0.435877
    79  N   -0.363985
    80  N   -0.570110
    81  N   -0.567947
    82  Zn   0.158665
    83  C    0.374781
    84  C    0.367849
    85  N   -0.313233
    86  N   -0.350526
    87  N   -0.316622
    88  C    0.021956
    89  C    0.051523
    90  C    0.365715
    91  C    0.374530
    92  C    0.311967
    93  C    0.373563
    94  C    0.068489
    95  C   -0.201396
    96  C   -0.203812
    97  C    0.069835
    98  N   -0.562282
    99  C    0.072013
   100  C    0.092580
   101  N   -0.551869
   102  C   -0.199984
   103  C   -0.096801
   104  H    0.140333
   105  C   -0.095266
   106  H    0.144165
   107  C   -0.196863
   108  C   -0.198715
   109  C   -0.200976
   110  C   -0.096388
   111  H    0.143161
   112  H    0.122898
   113  C   -0.095912
   114  H    0.124163
   115  H    0.143673
   116  C   -0.093884
   117  H    0.145224
   118  C   -0.096365
   119  H    0.144943
   120  H    0.123099
   121  H    0.123715
   122  H    0.124869
   123  H    0.124802
   124  C    0.381623
   125  N   -0.359550
   126  N   -0.225503
   127  C   -0.050059
   128  C   -0.031235
   129  C   -0.364272
   130  H    0.179751
   131  H    0.163124
   132  H    0.172099
   133  H    0.202754
   134  H    0.180414
 Sum of Mulliken charges =  -0.00000
 Mulliken charges with hydrogens summed into heavy atoms:
               1
     1  C    0.122647
     2  C   -0.044149
     3  C   -0.231170
     4  C   -0.086266
     6  C    0.243299
     8  C    0.074768
    10  C    0.300030
    11  C    0.435826
    12  N   -0.363908
    13  N   -0.570105
    14  N   -0.567949
    15  Zn   0.158743
    16  C    0.374767
    17  C    0.367837
    18  N   -0.313191
    19  N   -0.350499
    20  N   -0.316600
    21  C    0.021951
    22  C    0.051514
    23  C    0.365706
    24  C    0.374548
    25  C    0.311984
    26  C    0.373560
    27  C    0.068491
    28  C   -0.061060
    29  C   -0.059639
    30  C    0.069838
    31  N   -0.562282
    32  C    0.071999
    33  C    0.092569
    34  N   -0.551866
    35  C   -0.056823
    36  C    0.026102
    38  C    0.028899
    40  C   -0.053181
    41  C   -0.053489
    42  C   -0.056030
    43  C    0.026712
    46  C    0.027804
    49  C    0.030989
    51  C    0.028442
    57  C    0.381607
    58  N   -0.359354
    59  N   -0.225505
    60  C    0.129721
    61  C    0.131916
    62  C    0.191010
    68  C    0.122597
    69  C   -0.044153
    70  C   -0.230778
    71  C   -0.086278
    73  C    0.243019
    75  C    0.074750
    77  C    0.300026
    78  C    0.435877
    79  N   -0.363985
    80  N   -0.570110
    81  N   -0.567947
    82  Zn   0.158665
    83  C    0.374781
    84  C    0.367849
    85  N   -0.313233
    86  N   -0.350526
    87  N   -0.316622
    88  C    0.021956
    89  C    0.051523
    90  C    0.365715
    91  C    0.374530
    92  C    0.311967
    93  C    0.373563
    94  C    0.068489
    95  C   -0.061062
    96  C   -0.059647
    97  C    0.069835
    98  N   -0.562282
    99  C    0.072013
   100  C    0.092580
   101  N   -0.551869
   102  C   -0.056824
   103  C    0.026097
   105  C    0.028896
   107  C   -0.053190
   108  C   -0.053491
   109  C   -0.056033
   110  C    0.026711
   113  C    0.027804
   116  C    0.030984
   118  C    0.028438
   124  C    0.381623
   125  N   -0.359550
   126  N   -0.225503
   127  C    0.129693
   128  C    0.131890
   129  C    0.190995
 Electronic spatial extent (au):  <R**2>=         100042.3507
 Charge=             -0.0000 electrons
 Dipole moment (field-independent basis, Debye):
    X=             -0.0010    Y=             -2.8364    Z=              0.0015  Tot=              2.8364
 Quadrupole moment (field-independent basis, Debye-Ang):
   XX=           -534.3097   YY=           -507.9674   ZZ=           -508.9399
   XY=             -0.0001   XZ=             50.5249   YZ=             -0.0003
 Traceless Quadrupole moment (field-independent basis, Debye-Ang):
   XX=            -17.2374   YY=              9.1050   ZZ=              8.1324
   XY=             -0.0001   XZ=             50.5249   YZ=             -0.0003
 Octapole moment (field-independent basis, Debye-Ang**2):
  XXX=             -0.1162  YYY=             40.7348  ZZZ=              0.0566  XYY=             -0.0304
  XXY=            -59.7288  XXZ=              0.0125  XZZ=              0.0284  YZZ=           -119.5327
  YYZ=             -0.0102  XYZ=            -37.2027
 Hexadecapole moment (field-independent basis, Debye-Ang**3):
 XXXX=         -90079.9573 YYYY=         -27916.7365 ZZZZ=          -8360.9204 XXXY=              0.0103
 XXXZ=           1462.9646 YYYX=             -0.0117 YYYZ=             -0.0879 ZZZX=           1083.2237
 ZZZY=              0.0384 XXYY=         -20167.4184 XXZZ=         -18421.8555 YYZZ=          -6956.2594
 XXYZ=             -0.0803 YYXZ=             45.1622 ZZXY=             -0.0006
 N-N= 1.942651622993D+04 E-N=-5.635132545161D+04  KE= 7.392072539249D+03
 Leave Link  601 at Wed May 21 08:59:43 2025, MaxMem=  4294967296 cpu:         8.5
 (Enter /home/sergey/g09/l9999.exe)

 Test job not archived.
 1\1\ WCSS.PL-BEM-KETKOV-PC2\SP\RLC-BLYP TD-FC\Gen\C72H40N20Zn2\SERGEY\
 21-May-2025\0\\#p td(nstates=8) lc-blyp/gen geom=check guess=read iop(
 3/107=0400000000, 3/108=0400000000)\\geom b3pw/631gd, def2-tzvp(-f)\\0
 ,1\C,0,2.2747258455,1.7984332732,0.1580869177\C,0,2.1510022539,1.66842
 94088,1.5592613559\C,0,2.1177571756,0.6860534496,-0.6768793687\C,0,1.8
 58969612,0.4427934795,2.1455842024\H,0,2.2806882391,2.5503140619,2.180
 0080746\C,0,1.8070561136,-0.5340504971,-0.0868750037\H,0,2.1883602823,
 0.7755571874,-1.7572847394\C,0,1.6744583096,-0.6550921417,1.3081781965
 \H,0,1.7507049156,0.346500904,3.2211753625\C,0,1.5088386334,-1.8488580
 306,-0.6433219052\C,0,1.2830969863,-2.0360860338,1.561209905\N,0,1.177
 2783719,-2.6965422788,0.3722583552\N,0,1.5955695002,-2.1188888938,-1.9
 407691025\N,0,1.0837614755,-2.5156219438,2.783802823\Zn,0,0.2499093643
 ,-4.4997662104,0.1173575245\C,0,1.3966183876,-3.3279445682,-2.45121150
 7\C,0,0.7505055857,-3.7750331569,3.0317589066\N,0,0.5113529037,-4.7700
 792878,2.1263352593\N,0,0.3789822164,-6.5437642393,-0.0331399528\N,0,1
 .0259124681,-4.4616908613,-1.7875953197\C,0,1.5971611871,-3.6379017429
 ,-3.8643430998\C,0,0.624426627,-4.3120975937,4.3837667899\C,0,0.277480
 3327,-5.9326606919,2.7999236118\C,0,0.1746993036,-7.418479794,0.995254
 8287\C,0,0.485688256,-7.2483789415,-1.1991324438\C,0,0.9966917617,-5.4
 998767427,-2.6697649538\C,0,1.3472546928,-5.0144563598,-4.001874493\C,
 0,1.9696270234,-2.8618482479,-4.9592576071\C,0,0.7609413513,-3.7363946
 422,5.6446894872\C,0,0.3227806659,-5.6769846029,4.2370148592\N,0,0.091
 0407569,-7.1457034989,2.2912455335\C,0,0.1067904016,-8.7783059824,0.46
 65056612\C,0,0.3051371231,-8.6710525555,-0.9209462918\N,0,0.7356533191
 ,-6.7780462465,-2.4147832797\C,0,1.4655554524,-5.6486534703,-5.2361186
 104\C,0,2.0797101355,-3.4945004861,-6.1953265514\H,0,2.1637011322,-1.7
 993648422,-4.8447014165\C,0,0.5782594019,-4.5573678556,6.7548208262\H,
 0,1.0021515385,-2.6825638245,5.7493039788\C,0,0.1500631177,-6.50007608
 28,5.3471962373\C,0,-0.083241923,-10.017578118,1.0730923088\C,0,0.3174
 039357,-9.800245179,-1.7364899864\C,0,1.8315557754,-4.8709175279,-6.33
 20248035\H,0,1.2769689866,-6.714013613,-5.3312773913\H,0,2.3641249506,
 -2.9166573249,-7.0712504742\C,0,0.2765169441,-5.9220977518,6.607967802
 \H,0,0.6729604147,-4.1389999846,7.7537782088\H,0,-0.0757022726,-7.5552
 38516,5.2242329088\C,0,-0.0793503509,-11.1457533358,0.2564231273\H,0,-
 0.2283122716,-10.0915585599,2.146851398\C,0,0.1184580041,-11.038472812
 ,-1.1309135174\H,0,0.47865893,-9.7083867997,-2.8065966959\H,0,1.929630
 5573,-5.3336635999,-7.3108901467\H,0,0.1428934023,-6.534911596,7.49591
 26793\H,0,-0.2287733171,-12.1283419734,0.6969509374\H,0,0.1185883485,-
 11.9400327651,-1.738436223\C,0,2.5715758081,3.1225632018,-0.4150391676
 \N,0,1.8056456405,4.2114504762,-0.3411602042\N,0,3.7207978704,3.409316
 5493,-1.0890081978\C,0,2.4883828333,5.2163645856,-0.9842496999\C,0,3.6
 750095517,4.735267378,-1.4533872295\C,0,4.8351022001,2.5146340998,-1.3
 485369016\H,0,2.0784846448,6.2113045736,-1.0688949314\H,0,4.4792809807
 ,5.2045474679,-1.999911154\H,0,5.770669579,3.0062420134,-1.0688614495\
 H,0,4.7141308758,1.6094075589,-0.753387292\H,0,4.8721794833,2.24270468
 75,-2.4078684376\C,0,-2.2720586199,-1.8004751337,0.1729589096\C,0,-2.1
 39393364,-1.6702654565,1.5732879588\C,0,-2.1204250001,-0.6882013316,-0
 .6631450955\C,0,-1.84363447,-0.4445390113,2.1575632566\H,0,-2.26511061
 57,-2.552057739,2.194981527\C,0,-1.8059607584,0.5319761361,-0.07531060
 49\H,0,-2.1979204643,-0.7778434809,-1.7430660292\C,0,-1.6644600361,0.6
 53230411,1.3188484163\H,0,-1.7285164378,-0.3481073685,3.2324303014\C,0
 ,-1.5112975138,1.8466938474,-0.633860107\C,0,-1.2714658021,2.034265605
 4,1.5691450123\N,0,-1.173243013,2.6945405761,0.379441139\N,0,-1.606303
 4629,2.1164694287,-1.9307801604\N,0,-1.0643402187,2.5140085232,2.79036
 01903\Zn,0,-0.2472864365,4.4977091894,0.1182391779\C,0,-1.4105908077,3
 .3254252549,-2.4427117585\C,0,-0.7295747776,3.7734867901,3.0359554399\
 N,0,-0.4961691892,4.7683621984,2.1288497403\N,0,-0.3776043084,6.541679
 3823,-0.0317447528\N,0,-1.0356491296,4.4592759231,-1.7816769415\C,0,-1
 .6201150543,3.6351191968,-3.8545978198\C,0,-0.5950540849,4.3108226565,
 4.3870414752\C,0,-0.2581911313,5.9310996455,2.8007356447\C,0,-0.166925
 0986,7.4165998804,0.9951856309\C,0,-0.4917522287,7.2460815636,-1.19716
 27728\C,0,-1.0120252932,5.4973020609,-2.6642057173\C,0,-1.3710593338,5
 .0116428803,-3.9939707384\C,0,-1.9995541859,2.8588720736,-4.9469774627
 \C,0,-0.723627441,3.7353569416,5.6489072053\C,0,-0.2944568874,5.675706
 3667,4.2381338148\N,0,-0.0750627071,7.1440639852,2.2906712794\C,0,-0.1
 024886756,8.7763365888,0.4657792226\C,0,-0.3095739195,8.6688175724,-0.
 9203749743\N,0,-0.7493850976,6.7755183624,-2.4111228149\C,0,-1.4971950
 228,5.6456143478,-5.2275542693\C,0,-2.1174818939,3.4912979148,-6.18243
 90521\H,0,-2.1929213695,1.7964146097,-4.8309933315\C,0,-0.5340734874,4
 .5565656051,6.7577111794\H,0,-0.9640876387,2.6815262612,5.7552359162\C
 ,0,-0.1148749034,6.4990347469,5.3470504722\C,0,0.0912409816,10.0157370
 579,1.070935562\C,0,-0.327101642,9.7978661366,-1.736024185\C,0,-1.8701
 726557,4.8676839658,-6.3209672978\H,0,-1.3091966997,6.7109528911,-5.32
 41074995\H,0,-2.4074733376,2.9132988321,-7.0564295883\C,0,-0.233380992
 ,5.9212941065,6.6087026583\H,0,-0.6224822258,4.1383876086,7.7573246558
 \H,0,0.1100124125,7.554194901,5.2224679945\C,0,0.0820852612,11.1437659
 788,0.2541083037\H,0,0.2430708692,10.0899233547,2.1437456617\C,0,-0.12
 44617681,11.0362197719,-1.1319351441\H,0,-0.4951007171,9.7058012464,-2
 .8050750233\H,0,-1.9744598866,5.330250799,-7.2992751307\H,0,-0.0942607
 235,6.5342961955,7.4956730326\H,0,0.2341859918,12.1264476893,0.6935109
 416\H,0,-0.1285155036,11.9376723618,-1.7396037086\C,0,-2.572504982,-3.
 1246368373,-0.3981930823\N,0,-1.8061971238,-4.2135623234,-0.3290408752
 \N,0,-3.7258632935,-3.411305186,-1.0651128543\C,0,-2.492879704,-5.2183
 917132,-0.9680277847\C,0,-3.6823508063,-4.7372313604,-1.4298544885\C,0
 ,-4.8416424642,-2.516518098,-1.3178554902\H,0,-2.0835736123,-6.2133583
 002,-1.0551878764\H,0,-4.4899891986,-5.2064607366,-1.9714347868\H,0,-5
 .7756386541,-3.008691255,-1.0339773022\H,0,-4.7178290936,-1.6119938859
 ,-0.7222170784\H,0,-4.8842461139,-2.2432770774,-2.3766447189\\Version=
 ES64L-G09RevE.01\State=1-A\HF=-7412.2436158\RMSD=4.582e-09\PG=C01 [X(C
 72H40N20Zn2)]\\@


 TO BEHOLD HARMS OF OUR OWN HANDS DOING,
 WHERE NONE BESIDE US WROUGHT,
 CAUSES SHARP RUING...

                                         SOPHOCLES
 Job cpu time:       4 days 10 hours 21 minutes 45.0 seconds.
 File lengths (MBytes):  RWF=  12243 Int=      0 D2E=      0 Chk=   1968 Scr=      1
 Normal termination of Gaussian 09 at Wed May 21 08:59:44 2025.
