
                                 *****************
                                 * O   R   C   A *
                                 *****************

           --- An Ab Initio, DFT and Semiempirical electronic structure package ---

                  #######################################################
                  #                        -***-                        #
                  #          Department of theory and spectroscopy      #
                  #               Directorship: Frank Neese             #
                  #        Max Planck Institute fuer Kohlenforschung    #
                  #                Kaiser Wilhelm Platz 1               #
                  #                 D-45470 Muelheim/Ruhr               #
                  #                      Germany                        #
                  #                                                     #
                  #                  All rights reserved                #
                  #                        -***-                        #
                  #######################################################


                         Program Version 4.2.1 -  RELEASE  -


 With contributions from (in alphabetic order):
   Daniel Aravena         : Magnetic Suceptibility
   Michael Atanasov       : Ab Initio Ligand Field Theory (pilot matlab implementation)
   Alexander A. Auer      : GIAO ZORA, VPT2
   Ute Becker             : Parallelization
   Giovanni Bistoni       : ED, misc. LED, open-shell LED, HFLD
   Martin Brehm           : Molecular dynamics
   Dmytro Bykov           : SCF Hessian
   Vijay G. Chilkuri      : MRCI spin determinant printing, contributions to CSF-ICE
   Dipayan Datta          : RHF DLPNO-CCSD density
   Achintya Kumar Dutta   : EOM-CC, STEOM-CC
   Dmitry Ganyushin       : Spin-Orbit,Spin-Spin,Magnetic field MRCI
   Miquel Garcia          : C-PCM Hessian, Gaussian charge scheme
   Yang Guo               : DLPNO-NEVPT2, CIM, IAO-localization
   Andreas Hansen         : Spin unrestricted coupled pair/coupled cluster methods
   Benjamin Helmich-Paris : CASSCF linear response (MC-RPA)
   Lee Huntington         : MR-EOM, pCC
   Robert Izsak           : Overlap fitted RIJCOSX, COSX-SCS-MP3, EOM
   Christian Kollmar      : KDIIS, OOCD, Brueckner-CCSD(T), CCSD density
   Simone Kossmann        : Meta GGA functionals, TD-DFT gradient, OOMP2, MP2 Hessian
   Martin Krupicka        : AUTO-CI
   Lucas Lang             : DCDCAS
   Dagmar Lenk            : GEPOL surface, SMD
   Dimitrios Liakos       : Extrapolation schemes; Compound Job, initial MDCI parallelization
   Dimitrios Manganas     : Further ROCIS development; embedding schemes
   Dimitrios Pantazis     : SARC Basis sets
   Taras Petrenko         : DFT Hessian,TD-DFT gradient, ASA, ECA, R-Raman, ABS, FL, XAS/XES, NRVS
   Peter Pinski           : DLPNO-MP2, DLPNO-MP2 Gradient
   Christoph Reimann      : Effective Core Potentials
   Marius Retegan         : Local ZFS, SOC
   Christoph Riplinger    : Optimizer, TS searches, QM/MM, DLPNO-CCSD(T), (RO)-DLPNO pert. Triples
   Tobias Risthaus        : Range-separated hybrids, TD-DFT gradient, RPA, STAB
   Michael Roemelt        : Original ROCIS implementation
   Masaaki Saitow         : Open-shell DLPNO-CCSD energy and density
   Barbara Sandhoefer     : DKH picture change effects
   Avijit Sen             : IP-ROCIS
   Kantharuban Sivalingam : CASSCF convergence, NEVPT2, FIC-MRCI
   Bernardo de Souza      : ESD, SOC TD-DFT
   Georgi Stoychev        : AutoAux, RI-MP2 NMR
   Willem Van den Heuvel  : Paramagnetic NMR
   Boris Wezisla          : Elementary symmetry handling
   Frank Wennmohs         : Technical directorship


 We gratefully acknowledge several colleagues who have allowed us to
 interface, adapt or use parts of their codes:
   Stefan Grimme, W. Hujo, H. Kruse,             : VdW corrections, initial TS optimization,
                  C. Bannwarth                     DFT functionals, gCP, sTDA/sTD-DF
   Ed Valeev, F. Pavosevic, A. Kumar             : LibInt (2-el integral package), F12 methods
   Garnet Chan, S. Sharma, J. Yang, R. Olivares  : DMRG
   Ulf Ekstrom                                   : XCFun DFT Library
   Mihaly Kallay                                 : mrcc  (arbitrary order and MRCC methods)
   Andreas Klamt, Michael Diedenhofen            : otool_cosmo (COSMO solvation model)
   Jiri Pittner, Ondrej Demel                    : Mk-CCSD
   Frank Weinhold                                : gennbo (NPA and NBO analysis)
   Christopher J. Cramer and Donald G. Truhlar   : smd solvation model
   Lars Goerigk                                  : TD-DFT with DH, B97 family of functionals
   V. Asgeirsson, H. Jonsson                     : NEB implementation
   FAccTs GmbH                                   : IRC, NEB, NEB-TS, Multilevel, MM, QM/MM, CI optimization
   S Lehtola, MJT Oliveira, MAL Marques          : LibXC Library


 Your calculation uses the libint2 library for the computation of 2-el integrals
 For citations please refer to: http://libint.valeyev.net

 Your ORCA version has been built with support for libXC version: 4.2.3
 For citations please refer to: https://tddft.org/programs/libxc/

 This ORCA versions uses:
   CBLAS   interface :  Fast vector & matrix operations
   LAPACKE interface :  Fast linear algebra routines
   SCALAPACK package :  Parallel linear algebra routines


XCFun DFT library Copyright 2009-2010 Ulf Ekstrom and contributors.
See http://admol.org/xcfun for more information. This is free soft-
ware; see the source code for copying conditions. There is ABSOLUTELY
NO WARRANTY; not even for MERCHANTABILITY or FITNESS FOR A PARTICULAR
PURPOSE. For details see the documentation. Scientific users of this 
library should cite U. Ekstrom, L. Visscher, R. Bast, A. J. Thorvald-
sen and K. Ruud; J.Chem.Theor.Comp. 2010, DOI: 10.1021/ct100117s
XCFun Version 0.99 
----- Orbital basis set information -----
Your calculation utilizes the basis: def2-TZVP(-f)
   F. Weigend and R. Ahlrichs, Phys. Chem. Chem. Phys. 7, 3297 (2005).

----- AuxJ basis set information -----
Your calculation utilizes the auxiliary basis: def2/J
   F. Weigend, Phys. Chem. Chem. Phys. 8, 1057 (2006).

================================================================================
                                        WARNINGS
                       Please study these warnings very carefully!
================================================================================

INFO   : Checking CIS options ...

INFO   : Since TDDFT/CIS Mode == RPA_AOINTS, the TAMMDANCOFF/TDA keyword is ignored. 


WARNING: CIS/ROCIS methods need fully converged wavefunctions
  ===> : Setting SCFConvForced true
         You can overwrite this default with %scf ConvForced false 


INFO   : the flag for use of LIBINT has been found!

================================================================================
                                       INPUT FILE
================================================================================
NAME = /media/sergey/f823ebf4-a37f-4464-97a4-90311f85c47f1/makar/orca/ZnPc-gable/ZnPc-gable.inp
|  1> ! def2-tzvp(-f) def2/j lc-blyp pal5 rijcosx grid5 nofinalgrid gridx5 nofinalgridx
|  2> 
|  3> %maxcore 8000
|  4> 
|  5> %method
|  6> rangesepmu 0.4
|  7> end
|  8> 
|  9> %tddft
| 10> tda false
| 11> nroots 40
| 12> end
| 13> 
| 14> * xyz 0 1
| 15>  C                  1.29491300    0.00000000    3.49241000
| 16>  C                 -1.29491300    0.00000000    3.49241000
| 17>  H                 -2.38874200    0.00000000    3.46058900
| 18>  H                  2.38874200    0.00000000    3.46058900
| 19>  C                 -0.77444300    0.00000000    4.96227100
| 20>  H                 -1.16680100    0.88270400    5.47822100
| 21>  C                  0.77444300    0.00000000    4.96227100
| 22>  H                  1.16680100    0.88270400    5.47822100
| 23>  C                  0.70838200   -1.22304900    2.82207900
| 24>  C                  1.42932900   -2.27516800    2.27391800
| 25>  C                 -0.70838200   -1.22304900    2.82207900
| 26>  H                  2.51606400   -2.28459300    2.27069100
| 27>  C                 -1.42932900   -2.27516800    2.27391800
| 28>  H                 -2.51606400   -2.28459300    2.27069100
| 29>  C                  0.70838200    1.22304900    2.82207900
| 30>  C                 -0.70838200    1.22304900    2.82207900
| 31>  C                  1.42932900    2.27516800    2.27391800
| 32>  C                 -1.42932900    2.27516800    2.27391800
| 33>  H                  2.51606400    2.28459300    2.27069100
| 34>  H                 -2.51606400    2.28459300    2.27069100
| 35>  H                 -1.16680100   -0.88270400    5.47822100
| 36>  H                  1.16680100   -0.88270400    5.47822100
| 37>  C                  0.70339100    3.33038000    1.71918400
| 38>  C                 -0.70339100    3.33038000    1.71918400
| 39>  C                  1.11607200    4.56763700    1.07016700
| 40>  C                 -1.11607200    4.56763700    1.07016700
| 41>  N                  2.38483200    4.91351000    0.89188800
| 42>  N                  0.00000000    5.27057100    0.70247100
| 43>  N                 -2.38483200    4.91351000    0.89188800
| 44>  C                  2.77475200    6.03977300    0.30853700
| 45>  Zn                 0.00000000    7.01928100   -0.22805600
| 46>  C                 -2.77475200    6.03977300    0.30853700
| 47>  C                  4.17276000    6.40838400    0.12229800
| 48>  N                  1.98326300    7.03156000   -0.20488100
| 49>  N                  0.00000000    8.79339400   -1.11326800
| 50>  N                 -1.98326300    7.03156000   -0.20488100
| 51>  C                 -4.17276000    6.40838400    0.12229800
| 52>  C                  5.36559200    5.76933000    0.45425400
| 53>  C                  4.17298300    7.65971400   -0.52133600
| 54>  C                  2.77515200    8.02522500   -0.71422700
| 55>  C                  1.11671600    9.49893900   -1.47296700
| 56>  C                 -1.11671600    9.49893900   -1.47296700
| 57>  C                 -2.77515200    8.02522500   -0.71422700
| 58>  C                 -4.17298300    7.65971400   -0.52133600
| 59>  C                 -5.36559200    5.76933000    0.45425400
| 60>  C                  6.55660200    6.41155100    0.12764700
| 61>  H                  5.35662000    4.80333700    0.95023300
| 62>  C                  5.36595300    8.30171600   -0.84705900
| 63>  N                  2.38525500    9.15322300   -1.29386600
| 64>  C                  0.70354100   10.74419500   -2.10775300
| 65>  C                 -0.70354100   10.74419500   -2.10775300
| 66>  N                 -2.38525500    9.15322300   -1.29386600
| 67>  C                 -5.36595300    8.30171600   -0.84705900
| 68>  C                 -6.55660200    6.41155100    0.12764700
| 69>  H                 -5.35662000    4.80333700    0.95023300
| 70>  C                  6.55677200    7.66209600   -0.51470400
| 71>  H                  7.50523900    5.94055000    0.37214100
| 72>  H                  5.35726700    9.26752600   -1.34339100
| 73>  C                  1.42364200   11.80761300   -2.64831100
| 74>  C                 -1.42364200   11.80761300   -2.64831100
| 75>  C                 -6.55677200    7.66209600   -0.51470400
| 76>  H                 -5.35726700    9.26752600   -1.34339100
| 77>  H                 -7.50523900    5.94055000    0.37214100
| 78>  H                  7.50550800    8.13503200   -0.75501200
| 79>  C                  0.70294200   12.86907500   -3.18813200
| 80>  H                  2.50952200   11.79976800   -2.64399600
| 81>  C                 -0.70294200   12.86907500   -3.18813200
| 82>  H                 -2.50952200   11.79976800   -2.64399600
| 83>  H                 -7.50550800    8.13503200   -0.75501200
| 84>  H                  1.23347200   13.71473100   -3.61816100
| 85>  H                 -1.23347200   13.71473100   -3.61816100
| 86>  C                 -0.70339100   -3.33038000    1.71918400
| 87>  C                  0.70339100   -3.33038000    1.71918400
| 88>  C                 -1.11607200   -4.56763700    1.07016700
| 89>  C                  1.11607200   -4.56763700    1.07016700
| 90>  N                 -2.38483200   -4.91351000    0.89188800
| 91>  N                  0.00000000   -5.27057100    0.70247100
| 92>  N                  2.38483200   -4.91351000    0.89188800
| 93>  C                 -2.77475200   -6.03977300    0.30853700
| 94>  Zn                 0.00000000   -7.01928100   -0.22805600
| 95>  C                  2.77475200   -6.03977300    0.30853700
| 96>  C                 -4.17276000   -6.40838400    0.12229800
| 97>  N                 -1.98326300   -7.03156000   -0.20488100
| 98>  N                  0.00000000   -8.79339400   -1.11326800
| 99>  N                  1.98326300   -7.03156000   -0.20488100
|100>  C                  4.17276000   -6.40838400    0.12229800
|101>  C                 -5.36559200   -5.76933000    0.45425400
|102>  C                 -4.17298300   -7.65971400   -0.52133600
|103>  C                 -2.77515200   -8.02522500   -0.71422700
|104>  C                 -1.11671600   -9.49893900   -1.47296700
|105>  C                  1.11671600   -9.49893900   -1.47296700
|106>  C                  2.77515200   -8.02522500   -0.71422700
|107>  C                  4.17298300   -7.65971400   -0.52133600
|108>  C                  5.36559200   -5.76933000    0.45425400
|109>  C                 -6.55660200   -6.41155100    0.12764700
|110>  H                 -5.35662000   -4.80333700    0.95023300
|111>  C                 -5.36595300   -8.30171600   -0.84705900
|112>  N                 -2.38525500   -9.15322300   -1.29386600
|113>  C                 -0.70354100  -10.74419500   -2.10775300
|114>  C                  0.70354100  -10.74419500   -2.10775300
|115>  N                  2.38525500   -9.15322300   -1.29386600
|116>  C                  5.36595300   -8.30171600   -0.84705900
|117>  C                  6.55660200   -6.41155100    0.12764700
|118>  H                  5.35662000   -4.80333700    0.95023300
|119>  C                 -6.55677200   -7.66209600   -0.51470400
|120>  H                 -7.50523900   -5.94055000    0.37214100
|121>  H                 -5.35726700   -9.26752600   -1.34339100
|122>  C                 -1.42364200  -11.80761300   -2.64831100
|123>  C                  1.42364200  -11.80761300   -2.64831100
|124>  C                  6.55677200   -7.66209600   -0.51470400
|125>  H                  5.35726700   -9.26752600   -1.34339100
|126>  H                  7.50523900   -5.94055000    0.37214100
|127>  H                 -7.50550800   -8.13503200   -0.75501200
|128>  C                 -0.70294200  -12.86907500   -3.18813200
|129>  H                 -2.50952200  -11.79976800   -2.64399600
|130>  C                  0.70294200  -12.86907500   -3.18813200
|131>  H                  2.50952200  -11.79976800   -2.64399600
|132>  H                  7.50550800   -8.13503200   -0.75501200
|133>  H                 -1.23347200  -13.71473100   -3.61816100
|134>  H                  1.23347200  -13.71473100   -3.61816100
|135> *
|136> 
|137> 
|138>                          ****END OF INPUT****
================================================================================

                       ****************************
                       * Single Point Calculation *
                       ****************************

---------------------------------
CARTESIAN COORDINATES (ANGSTROEM)
---------------------------------
  C      1.294913    0.000000    3.492410
  C     -1.294913    0.000000    3.492410
  H     -2.388742    0.000000    3.460589
  H      2.388742    0.000000    3.460589
  C     -0.774443    0.000000    4.962271
  H     -1.166801    0.882704    5.478221
  C      0.774443    0.000000    4.962271
  H      1.166801    0.882704    5.478221
  C      0.708382   -1.223049    2.822079
  C      1.429329   -2.275168    2.273918
  C     -0.708382   -1.223049    2.822079
  H      2.516064   -2.284593    2.270691
  C     -1.429329   -2.275168    2.273918
  H     -2.516064   -2.284593    2.270691
  C      0.708382    1.223049    2.822079
  C     -0.708382    1.223049    2.822079
  C      1.429329    2.275168    2.273918
  C     -1.429329    2.275168    2.273918
  H      2.516064    2.284593    2.270691
  H     -2.516064    2.284593    2.270691
  H     -1.166801   -0.882704    5.478221
  H      1.166801   -0.882704    5.478221
  C      0.703391    3.330380    1.719184
  C     -0.703391    3.330380    1.719184
  C      1.116072    4.567637    1.070167
  C     -1.116072    4.567637    1.070167
  N      2.384832    4.913510    0.891888
  N      0.000000    5.270571    0.702471
  N     -2.384832    4.913510    0.891888
  C      2.774752    6.039773    0.308537
  Zn     0.000000    7.019281   -0.228056
  C     -2.774752    6.039773    0.308537
  C      4.172760    6.408384    0.122298
  N      1.983263    7.031560   -0.204881
  N      0.000000    8.793394   -1.113268
  N     -1.983263    7.031560   -0.204881
  C     -4.172760    6.408384    0.122298
  C      5.365592    5.769330    0.454254
  C      4.172983    7.659714   -0.521336
  C      2.775152    8.025225   -0.714227
  C      1.116716    9.498939   -1.472967
  C     -1.116716    9.498939   -1.472967
  C     -2.775152    8.025225   -0.714227
  C     -4.172983    7.659714   -0.521336
  C     -5.365592    5.769330    0.454254
  C      6.556602    6.411551    0.127647
  H      5.356620    4.803337    0.950233
  C      5.365953    8.301716   -0.847059
  N      2.385255    9.153223   -1.293866
  C      0.703541   10.744195   -2.107753
  C     -0.703541   10.744195   -2.107753
  N     -2.385255    9.153223   -1.293866
  C     -5.365953    8.301716   -0.847059
  C     -6.556602    6.411551    0.127647
  H     -5.356620    4.803337    0.950233
  C      6.556772    7.662096   -0.514704
  H      7.505239    5.940550    0.372141
  H      5.357267    9.267526   -1.343391
  C      1.423642   11.807613   -2.648311
  C     -1.423642   11.807613   -2.648311
  C     -6.556772    7.662096   -0.514704
  H     -5.357267    9.267526   -1.343391
  H     -7.505239    5.940550    0.372141
  H      7.505508    8.135032   -0.755012
  C      0.702942   12.869075   -3.188132
  H      2.509522   11.799768   -2.643996
  C     -0.702942   12.869075   -3.188132
  H     -2.509522   11.799768   -2.643996
  H     -7.505508    8.135032   -0.755012
  H      1.233472   13.714731   -3.618161
  H     -1.233472   13.714731   -3.618161
  C     -0.703391   -3.330380    1.719184
  C      0.703391   -3.330380    1.719184
  C     -1.116072   -4.567637    1.070167
  C      1.116072   -4.567637    1.070167
  N     -2.384832   -4.913510    0.891888
  N      0.000000   -5.270571    0.702471
  N      2.384832   -4.913510    0.891888
  C     -2.774752   -6.039773    0.308537
  Zn     0.000000   -7.019281   -0.228056
  C      2.774752   -6.039773    0.308537
  C     -4.172760   -6.408384    0.122298
  N     -1.983263   -7.031560   -0.204881
  N      0.000000   -8.793394   -1.113268
  N      1.983263   -7.031560   -0.204881
  C      4.172760   -6.408384    0.122298
  C     -5.365592   -5.769330    0.454254
  C     -4.172983   -7.659714   -0.521336
  C     -2.775152   -8.025225   -0.714227
  C     -1.116716   -9.498939   -1.472967
  C      1.116716   -9.498939   -1.472967
  C      2.775152   -8.025225   -0.714227
  C      4.172983   -7.659714   -0.521336
  C      5.365592   -5.769330    0.454254
  C     -6.556602   -6.411551    0.127647
  H     -5.356620   -4.803337    0.950233
  C     -5.365953   -8.301716   -0.847059
  N     -2.385255   -9.153223   -1.293866
  C     -0.703541  -10.744195   -2.107753
  C      0.703541  -10.744195   -2.107753
  N      2.385255   -9.153223   -1.293866
  C      5.365953   -8.301716   -0.847059
  C      6.556602   -6.411551    0.127647
  H      5.356620   -4.803337    0.950233
  C     -6.556772   -7.662096   -0.514704
  H     -7.505239   -5.940550    0.372141
  H     -5.357267   -9.267526   -1.343391
  C     -1.423642  -11.807613   -2.648311
  C      1.423642  -11.807613   -2.648311
  C      6.556772   -7.662096   -0.514704
  H      5.357267   -9.267526   -1.343391
  H      7.505239   -5.940550    0.372141
  H     -7.505508   -8.135032   -0.755012
  C     -0.702942  -12.869075   -3.188132
  H     -2.509522  -11.799768   -2.643996
  C      0.702942  -12.869075   -3.188132
  H      2.509522  -11.799768   -2.643996
  H      7.505508   -8.135032   -0.755012
  H     -1.233472  -13.714731   -3.618161
  H      1.233472  -13.714731   -3.618161

----------------------------
CARTESIAN COORDINATES (A.U.)
----------------------------
  NO LB      ZA    FRAG     MASS         X           Y           Z
   0 C     6.0000    0    12.011    2.447031    0.000000    6.599698
   1 C     6.0000    0    12.011   -2.447031    0.000000    6.599698
   2 H     1.0000    0     1.008   -4.514068    0.000000    6.539565
   3 H     1.0000    0     1.008    4.514068    0.000000    6.539565
   4 C     6.0000    0    12.011   -1.463485    0.000000    9.377333
   5 H     1.0000    0     1.008   -2.204934    1.668069   10.352337
   6 C     6.0000    0    12.011    1.463485    0.000000    9.377333
   7 H     1.0000    0     1.008    2.204934    1.668069   10.352337
   8 C     6.0000    0    12.011    1.338648   -2.311228    5.332956
   9 C     6.0000    0    12.011    2.701040   -4.299444    4.297082
  10 C     6.0000    0    12.011   -1.338648   -2.311228    5.332956
  11 H     1.0000    0     1.008    4.754672   -4.317255    4.290984
  12 C     6.0000    0    12.011   -2.701040   -4.299444    4.297082
  13 H     1.0000    0     1.008   -4.754672   -4.317255    4.290984
  14 C     6.0000    0    12.011    1.338648    2.311228    5.332956
  15 C     6.0000    0    12.011   -1.338648    2.311228    5.332956
  16 C     6.0000    0    12.011    2.701040    4.299444    4.297082
  17 C     6.0000    0    12.011   -2.701040    4.299444    4.297082
  18 H     1.0000    0     1.008    4.754672    4.317255    4.290984
  19 H     1.0000    0     1.008   -4.754672    4.317255    4.290984
  20 H     1.0000    0     1.008   -2.204934   -1.668069   10.352337
  21 H     1.0000    0     1.008    2.204934   -1.668069   10.352337
  22 C     6.0000    0    12.011    1.329216    6.293506    3.248787
  23 C     6.0000    0    12.011   -1.329216    6.293506    3.248787
  24 C     6.0000    0    12.011    2.109070    8.631583    2.022323
  25 C     6.0000    0    12.011   -2.109070    8.631583    2.022323
  26 N     7.0000    0    14.007    4.506679    9.285188    1.685424
  27 N     7.0000    0    14.007    0.000000    9.959936    1.327478
  28 N     7.0000    0    14.007   -4.506679    9.285188    1.685424
  29 C     6.0000    0    12.011    5.243521   11.413517    0.583050
  30 Zn   30.0000    0    65.380    0.000000   13.264519   -0.430963
  31 C     6.0000    0    12.011   -5.243521   11.413517    0.583050
  32 C     6.0000    0    12.011    7.885374   12.110091    0.231110
  33 N     7.0000    0    14.007    3.747824   13.287723   -0.387169
  34 N     7.0000    0    14.007    0.000000   16.617106   -2.103772
  35 N     7.0000    0    14.007   -3.747824   13.287723   -0.387169
  36 C     6.0000    0    12.011   -7.885374   12.110091    0.231110
  37 C     6.0000    0    12.011   10.139499   10.902454    0.858416
  38 C     6.0000    0    12.011    7.885795   14.474762   -0.985182
  39 C     6.0000    0    12.011    5.244277   15.165477   -1.349693
  40 C     6.0000    0    12.011    2.110287   17.950393   -2.783504
  41 C     6.0000    0    12.011   -2.110287   17.950393   -2.783504
  42 C     6.0000    0    12.011   -5.244277   15.165477   -1.349693
  43 C     6.0000    0    12.011   -7.885795   14.474762   -0.985182
  44 C     6.0000    0    12.011  -10.139499   10.902454    0.858416
  45 C     6.0000    0    12.011   12.390182   12.116075    0.241218
  46 H     1.0000    0     1.008   10.122545    9.076991    1.795680
  47 C     6.0000    0    12.011   10.140182   15.687970   -1.600710
  48 N     7.0000    0    14.007    4.507479   17.297085   -2.445052
  49 C     6.0000    0    12.011    1.329500   20.303586   -3.983076
  50 C     6.0000    0    12.011   -1.329500   20.303586   -3.983076
  51 N     7.0000    0    14.007   -4.507479   17.297085   -2.445052
  52 C     6.0000    0    12.011  -10.140182   15.687970   -1.600710
  53 C     6.0000    0    12.011  -12.390182   12.116075    0.241218
  54 H     1.0000    0     1.008  -10.122545    9.076991    1.795680
  55 C     6.0000    0    12.011   12.390503   14.479263   -0.972650
  56 H     1.0000    0     1.008   14.182846   11.226013    0.703245
  57 H     1.0000    0     1.008   10.123767   17.513086   -2.538641
  58 C     6.0000    0    12.011    2.690293   22.313155   -5.004583
  59 C     6.0000    0    12.011   -2.690293   22.313155   -5.004583
  60 C     6.0000    0    12.011  -12.390503   14.479263   -0.972650
  61 H     1.0000    0     1.008  -10.123767   17.513086   -2.538641
  62 H     1.0000    0     1.008  -14.182846   11.226013    0.703245
  63 H     1.0000    0     1.008   14.183355   15.372983   -1.426766
  64 C     6.0000    0    12.011    1.328368   24.319027   -6.024696
  65 H     1.0000    0     1.008    4.742309   22.298330   -4.996428
  66 C     6.0000    0    12.011   -1.328368   24.319027   -6.024696
  67 H     1.0000    0     1.008   -4.742309   22.298330   -4.996428
  68 H     1.0000    0     1.008  -14.183355   15.372983   -1.426766
  69 H     1.0000    0     1.008    2.330924   25.917086   -6.837333
  70 H     1.0000    0     1.008   -2.330924   25.917086   -6.837333
  71 C     6.0000    0    12.011   -1.329216   -6.293506    3.248787
  72 C     6.0000    0    12.011    1.329216   -6.293506    3.248787
  73 C     6.0000    0    12.011   -2.109070   -8.631583    2.022323
  74 C     6.0000    0    12.011    2.109070   -8.631583    2.022323
  75 N     7.0000    0    14.007   -4.506679   -9.285188    1.685424
  76 N     7.0000    0    14.007    0.000000   -9.959936    1.327478
  77 N     7.0000    0    14.007    4.506679   -9.285188    1.685424
  78 C     6.0000    0    12.011   -5.243521  -11.413517    0.583050
  79 Zn   30.0000    0    65.380    0.000000  -13.264519   -0.430963
  80 C     6.0000    0    12.011    5.243521  -11.413517    0.583050
  81 C     6.0000    0    12.011   -7.885374  -12.110091    0.231110
  82 N     7.0000    0    14.007   -3.747824  -13.287723   -0.387169
  83 N     7.0000    0    14.007    0.000000  -16.617106   -2.103772
  84 N     7.0000    0    14.007    3.747824  -13.287723   -0.387169
  85 C     6.0000    0    12.011    7.885374  -12.110091    0.231110
  86 C     6.0000    0    12.011  -10.139499  -10.902454    0.858416
  87 C     6.0000    0    12.011   -7.885795  -14.474762   -0.985182
  88 C     6.0000    0    12.011   -5.244277  -15.165477   -1.349693
  89 C     6.0000    0    12.011   -2.110287  -17.950393   -2.783504
  90 C     6.0000    0    12.011    2.110287  -17.950393   -2.783504
  91 C     6.0000    0    12.011    5.244277  -15.165477   -1.349693
  92 C     6.0000    0    12.011    7.885795  -14.474762   -0.985182
  93 C     6.0000    0    12.011   10.139499  -10.902454    0.858416
  94 C     6.0000    0    12.011  -12.390182  -12.116075    0.241218
  95 H     1.0000    0     1.008  -10.122545   -9.076991    1.795680
  96 C     6.0000    0    12.011  -10.140182  -15.687970   -1.600710
  97 N     7.0000    0    14.007   -4.507479  -17.297085   -2.445052
  98 C     6.0000    0    12.011   -1.329500  -20.303586   -3.983076
  99 C     6.0000    0    12.011    1.329500  -20.303586   -3.983076
 100 N     7.0000    0    14.007    4.507479  -17.297085   -2.445052
 101 C     6.0000    0    12.011   10.140182  -15.687970   -1.600710
 102 C     6.0000    0    12.011   12.390182  -12.116075    0.241218
 103 H     1.0000    0     1.008   10.122545   -9.076991    1.795680
 104 C     6.0000    0    12.011  -12.390503  -14.479263   -0.972650
 105 H     1.0000    0     1.008  -14.182846  -11.226013    0.703245
 106 H     1.0000    0     1.008  -10.123767  -17.513086   -2.538641
 107 C     6.0000    0    12.011   -2.690293  -22.313155   -5.004583
 108 C     6.0000    0    12.011    2.690293  -22.313155   -5.004583
 109 C     6.0000    0    12.011   12.390503  -14.479263   -0.972650
 110 H     1.0000    0     1.008   10.123767  -17.513086   -2.538641
 111 H     1.0000    0     1.008   14.182846  -11.226013    0.703245
 112 H     1.0000    0     1.008  -14.183355  -15.372983   -1.426766
 113 C     6.0000    0    12.011   -1.328368  -24.319027   -6.024696
 114 H     1.0000    0     1.008   -4.742309  -22.298330   -4.996428
 115 C     6.0000    0    12.011    1.328368  -24.319027   -6.024696
 116 H     1.0000    0     1.008    4.742309  -22.298330   -4.996428
 117 H     1.0000    0     1.008   14.183355  -15.372983   -1.426766
 118 H     1.0000    0     1.008   -2.330924  -25.917086   -6.837333
 119 H     1.0000    0     1.008    2.330924  -25.917086   -6.837333

--------------------------------
INTERNAL COORDINATES (ANGSTROEM)
--------------------------------
 C      0   0   0     0.000000000000     0.00000000     0.00000000
 C      1   0   0     2.589826000000     0.00000000     0.00000000
 H      2   1   0     1.094291760584   178.33365642     0.00000000
 H      1   2   3     1.094291760584   178.33365642     0.00000000
 C      2   1   4     1.559288421114    70.50121504   180.00000085
 H      5   2   1     1.095132665151   108.93666993   121.55429860
 C      5   2   1     1.548886000000   109.49878496     0.00000000
 H      7   5   2     1.095132665151   110.99425886   120.30674608
 C      1   2   3     1.513013919276    67.19118743   298.72634924
 C      9   1   2     1.388236092634   125.89178707   181.27274733
 C      9   1   2     1.416764000000   112.80881257     0.00000000
 H     10   9   1     1.086780660657   121.80629970   358.71973100
 C     11   9   1     1.388236092634   121.28704708   181.20653563
 H     13  11   9     1.086780660657   121.80629970   179.90737951
 C      1   2   3     1.513013919276    67.19118743    61.27365076
 C     15   1   2     1.416764000000   112.80881257     0.00000000
 C     15   1   2     1.388236092634   125.89178707   178.72725267
 C     16  15   1     1.388236092634   121.28704708   178.79346437
 H     17  15   1     1.086780660657   121.80629970     1.28026900
 H     18  16  15     1.086780660657   121.80629970   180.09262049
 H      5   2   1     1.095132665151   108.93666993   238.44570140
 H      7   5   2     1.095132665151   110.99425886   239.69325392
 C     17  15   1     1.395775109229   117.37389534   181.16949044
 C     18  16  15     1.395775109229   117.37389534     0.20339906
 C     23  17  15     1.456823104601   132.20549614   180.13679420
 C     24  18  16     1.456823104601   132.20549614   179.86320580
 N     25  23  17     1.327088343544   123.50551132   359.91486509
 N     25  23  17     1.369282025719   108.94913607   180.10000123
 N     26  24  18     1.327088343544   123.50551132     0.08513491
 C     27  25  23     1.326953028848   124.13858788   180.34191470
 Zn    28  25  23     1.980875352421   125.40388299   180.42959954
 C     29  26  24     1.326953028848   124.13858788   179.65808530
 C     30  27  25     1.457732966804   123.54517206   179.84400418
 N     30  27  25     1.368829548634   127.58597128     0.05332154
 N     31  28  25     1.982694434781   178.49895251   269.71219152
 N     32  29  26     1.368829548634   127.58597128   359.94667846
 C     32  29  26     1.457732966804   123.54517206   180.15599582
 C     33  30  27     1.393353142989   132.42303059     0.21048888
 C     33  30  27     1.407157256523   106.46639463   180.22956960
 C     34  30  27     1.368901628409   109.32995312   179.78587673
 C     35  31  28     1.369025836967   125.34172539    90.35166634
 C     35  31  28     1.369025836967   125.34172539   269.64833366
 C     36  32  29     1.368901628409   109.32995312   180.21412327
 C     37  32  29     1.407157256523   106.46639463   179.77043040
 C     37  32  29     1.393353142989   132.42303059   359.78951112
 C     38  33  30     1.391985907037   117.70893060   180.04117996
 H     38  33  30     1.085918109838   120.64615299     0.06855121
 C     39  33  30     1.393355468512   121.11765450   179.93036641
 N     40  34  30     1.326793325629   127.56647877   180.12917684
 C     41  35  31     1.457507925178   108.87520815   179.39454980
 C     50  41  35     1.407082000000   106.46803906     0.00000000
 N     43  36  32     1.326793325629   127.56647877   179.87082316
 C     44  37  32     1.393355468512   121.11765450   180.06963359
 C     45  37  32     1.391985907037   117.70893060   179.95882004
 H     45  37  32     1.085918109838   120.64615299   359.93144879
 C     48  39  33     1.391985445752   117.70477178     0.04670643
 H     46  38  33     1.086982711825   119.60566212   180.01997156
 H     48  39  33     1.085914295384   120.65034229   180.02592512
 C     50  41  35     1.393415316512   132.41484377   179.92240542
 C     51  50  41     1.393415316512   121.11707537   179.93437467
 C     53  44  37     1.391985445752   117.70477178   359.95329357
 H     53  44  37     1.085914295384   120.65034229   179.97407488
 H     54  45  37     1.086982711825   119.60566212   179.98002844
 H     56  48  39     1.086975801320   119.60195998   179.96807809
 C     59  50  41     1.391947118063   117.70054473   180.07458053
 H     59  50  41     1.085916911025   120.64491542     0.06735401
 C     60  51  50     1.391947118063   117.70054473     0.00000000
 H     60  51  50     1.085916911025   120.64491542   180.01788900
 H     61  53  44     1.086975801320   119.60195998   180.03192191
 H     65  59  50     1.086977963014   119.60329058   180.00845909
 H     67  60  51     1.086977963014   119.60329058   179.99154091
 C     13  11   9     1.395775109229   117.37389534   359.79660094
 C     10   9   1     1.395775109229   117.37389534   178.83050956
 C     72  13  11     1.456823104601   132.20549614   180.13679420
 C     73  10   9     1.456823104601   132.20549614   179.86320580
 N     74  72  13     1.327088343544   123.50551132   359.91486509
 N     74  72  13     1.369282025719   108.94913607   180.10000123
 N     75  73  10     1.327088343544   123.50551132     0.08513491
 C     76  74  72     1.326953028848   124.13858788   180.34191470
 Zn    77  74  72     1.980875352421   125.40388299   180.42959954
 C     78  75  73     1.326953028848   124.13858788   179.65808530
 C     79  76  74     1.457732966804   123.54517206   179.84400418
 N     79  76  74     1.368829548634   127.58597128     0.05332154
 N     80  77  74     1.982694434781   178.49895251   269.71219152
 N     81  78  75     1.368829548634   127.58597128   359.94667846
 C     81  78  75     1.457732966804   123.54517206   180.15599582
 C     82  79  76     1.393353142989   132.42303059     0.21048888
 C     82  79  76     1.407157256523   106.46639463   180.22956960
 C     83  79  76     1.368901628409   109.32995312   179.78587673
 C     84  80  77     1.369025836967   125.34172539    90.35166634
 C     84  80  77     1.369025836967   125.34172539   269.64833366
 C     85  81  78     1.368901628409   109.32995312   180.21412327
 C     86  81  78     1.407157256523   106.46639463   179.77043040
 C     86  81  78     1.393353142989   132.42303059   359.78951112
 C     87  82  79     1.391985907037   117.70893060   180.04117996
 H     87  82  79     1.085918109838   120.64615299     0.06855121
 C     88  82  79     1.393355468512   121.11765450   179.93036641
 N     89  83  79     1.326793325629   127.56647877   180.12917684
 C     90  84  80     1.457507925178   108.87520815   179.39454980
 C     99  90  84     1.407082000000   106.46803906     0.00000000
 N     92  85  81     1.326793325629   127.56647877   179.87082316
 C     93  86  81     1.393355468512   121.11765450   180.06963359
 C     94  86  81     1.391985907037   117.70893060   179.95882004
 H     94  86  81     1.085918109838   120.64615299   359.93144879
 C     97  88  82     1.391985445752   117.70477178     0.04670643
 H     95  87  82     1.086982711825   119.60566212   180.01997156
 H     97  88  82     1.085914295384   120.65034229   180.02592512
 C     99  90  84     1.393415316512   132.41484377   179.92240542
 C    100  99  90     1.393415316512   121.11707537   179.93437467
 C    102  93  86     1.391985445752   117.70477178   359.95329357
 H    102  93  86     1.085914295384   120.65034229   179.97407488
 H    103  94  86     1.086982711825   119.60566212   179.98002844
 H    105  97  88     1.086975801320   119.60195998   179.96807809
 C    108  99  90     1.391947118063   117.70054473   180.07458053
 H    108  99  90     1.085916911025   120.64491542     0.06735401
 C    109 100  99     1.391947118063   117.70054473     0.00000000
 H    109 100  99     1.085916911025   120.64491542   180.01788900
 H    110 102  93     1.086975801320   119.60195998   180.03192191
 H    114 108  99     1.086977963014   119.60329058   180.00845909
 H    116 109 100     1.086977963014   119.60329058   179.99154091

---------------------------
INTERNAL COORDINATES (A.U.)
---------------------------
 C      0   0   0     0.000000000000     0.00000000     0.00000000
 C      1   0   0     4.894061874509     0.00000000     0.00000000
 H      2   1   0     2.067911738110   178.33365642     0.00000000
 H      1   2   3     2.067911738110   178.33365642     0.00000000
 C      2   1   4     2.946628079700    70.50121504   180.00000085
 H      5   2   1     2.069500817446   108.93666993   121.55429860
 C      5   2   1     2.926970352665   109.49878496     0.00000000
 H      7   5   2     2.069500817446   110.99425886   120.30674608
 C      1   2   3     2.859181944243    67.19118743   298.72634924
 C      9   1   2     2.623386024303   125.89178707   181.27274733
 C      9   1   2     2.677295956399   112.80881257     0.00000000
 H     10   9   1     2.053717816285   121.80629970   358.71973100
 C     11   9   1     2.623386024303   121.28704708   181.20653563
 H     13  11   9     2.053717816285   121.80629970   179.90737951
 C      1   2   3     2.859181944243    67.19118743    61.27365076
 C     15   1   2     2.677295956399   112.80881257     0.00000000
 C     15   1   2     2.623386024303   125.89178707   178.72725267
 C     16  15   1     2.623386024303   121.28704708   178.79346437
 H     17  15   1     2.053717816285   121.80629970     1.28026900
 H     18  16  15     2.053717816285   121.80629970   180.09262049
 H      5   2   1     2.069500817446   108.93666993   238.44570140
 H      7   5   2     2.069500817446   110.99425886   239.69325392
 C     17  15   1     2.637632700987   117.37389534   181.16949044
 C     18  16  15     2.637632700987   117.37389534     0.20339906
 C     23  17  15     2.752996693265   132.20549614   180.13679420
 C     24  18  16     2.752996693265   132.20549614   179.86320580
 N     25  23  17     2.507833524817   123.50551132   359.91486509
 N     25  23  17     2.587568028709   108.94913607   180.10000123
 N     26  24  18     2.507833524817   123.50551132     0.08513491
 C     27  25  23     2.507577817101   124.13858788   180.34191470
 Zn    28  25  23     3.743311921510   125.40388299   180.42959954
 C     29  26  24     2.507577817101   124.13858788   179.65808530
 C     30  27  25     2.754716083647   123.54517206   179.84400418
 N     30  27  25     2.586712970938   127.58597128     0.05332154
 N     31  28  25     3.746749488987   178.49895251   269.71219152
 N     32  29  26     2.586712970938   127.58597128   359.94667846
 C     32  29  26     2.754716083647   123.54517206   180.15599582
 C     33  30  27     2.633055848087   132.42303059     0.21048888
 C     33  30  27     2.659141842188   106.46639463   180.22956960
 C     34  30  27     2.586849181973   109.32995312   179.78587673
 C     35  31  28     2.587083902129   125.34172539    90.35166634
 C     35  31  28     2.587083902129   125.34172539   269.64833366
 C     36  32  29     2.586849181973   109.32995312   180.21412327
 C     37  32  29     2.659141842188   106.46639463   179.77043040
 C     37  32  29     2.633055848087   132.42303059   359.78951112
 C     38  33  30     2.630472146578   117.70893060   180.04117996
 H     38  33  30     2.052087831459   120.64615299     0.06855121
 C     39  33  30     2.633060242690   121.11765450   179.93036641
 N     40  34  30     2.507276021754   127.56647877   180.12917684
 C     41  35  31     2.754290816606   108.87520815   179.39454980
 C     50  41  35     2.658999627970   106.46803906     0.00000000
 N     43  36  32     2.507276021754   127.56647877   179.87082316
 C     44  37  32     2.633060242690   121.11765450   180.06963359
 C     45  37  32     2.630472146578   117.70893060   179.95882004
 H     45  37  32     2.052087831459   120.64615299   359.93144879
 C     48  39  33     2.630471274876   117.70477178     0.04670643
 H     46  38  33     2.054099637656   119.60566212   180.01997156
 H     48  39  33     2.052080623186   120.65034229   180.02592512
 C     50  41  35     2.633173339018   132.41484377   179.92240542
 C     51  50  41     2.633173339018   121.11707537   179.93437467
 C     53  44  37     2.630471274876   117.70477178   359.95329357
 H     53  44  37     2.052080623186   120.65034229   179.97407488
 H     54  45  37     2.054099637656   119.60566212   179.98002844
 H     56  48  39     2.054086578695   119.60195998   179.96807809
 C     59  50  41     2.630398846041   117.70054473   180.07458053
 H     59  50  41     2.052085566031   120.64491542     0.06735401
 C     60  51  50     2.630398846041   117.70054473     0.00000000
 H     60  51  50     2.052085566031   120.64491542   180.01788900
 H     61  53  44     2.054086578695   119.60195998   180.03192191
 H     65  59  50     2.054090663703   119.60329058   180.00845909
 H     67  60  51     2.054090663703   119.60329058   179.99154091
 C     13  11   9     2.637632700987   117.37389534   359.79660094
 C     10   9   1     2.637632700987   117.37389534   178.83050956
 C     72  13  11     2.752996693265   132.20549614   180.13679420
 C     73  10   9     2.752996693265   132.20549614   179.86320580
 N     74  72  13     2.507833524817   123.50551132   359.91486509
 N     74  72  13     2.587568028709   108.94913607   180.10000123
 N     75  73  10     2.507833524817   123.50551132     0.08513491
 C     76  74  72     2.507577817101   124.13858788   180.34191470
 Zn    77  74  72     3.743311921510   125.40388299   180.42959954
 C     78  75  73     2.507577817101   124.13858788   179.65808530
 C     79  76  74     2.754716083647   123.54517206   179.84400418
 N     79  76  74     2.586712970938   127.58597128     0.05332154
 N     80  77  74     3.746749488987   178.49895251   269.71219152
 N     81  78  75     2.586712970938   127.58597128   359.94667846
 C     81  78  75     2.754716083647   123.54517206   180.15599582
 C     82  79  76     2.633055848087   132.42303059     0.21048888
 C     82  79  76     2.659141842188   106.46639463   180.22956960
 C     83  79  76     2.586849181973   109.32995312   179.78587673
 C     84  80  77     2.587083902129   125.34172539    90.35166634
 C     84  80  77     2.587083902129   125.34172539   269.64833366
 C     85  81  78     2.586849181973   109.32995312   180.21412327
 C     86  81  78     2.659141842188   106.46639463   179.77043040
 C     86  81  78     2.633055848087   132.42303059   359.78951112
 C     87  82  79     2.630472146578   117.70893060   180.04117996
 H     87  82  79     2.052087831459   120.64615299     0.06855121
 C     88  82  79     2.633060242690   121.11765450   179.93036641
 N     89  83  79     2.507276021754   127.56647877   180.12917684
 C     90  84  80     2.754290816606   108.87520815   179.39454980
 C     99  90  84     2.658999627970   106.46803906     0.00000000
 N     92  85  81     2.507276021754   127.56647877   179.87082316
 C     93  86  81     2.633060242690   121.11765450   180.06963359
 C     94  86  81     2.630472146578   117.70893060   179.95882004
 H     94  86  81     2.052087831459   120.64615299   359.93144879
 C     97  88  82     2.630471274876   117.70477178     0.04670643
 H     95  87  82     2.054099637656   119.60566212   180.01997156
 H     97  88  82     2.052080623186   120.65034229   180.02592512
 C     99  90  84     2.633173339018   132.41484377   179.92240542
 C    100  99  90     2.633173339018   121.11707537   179.93437467
 C    102  93  86     2.630471274876   117.70477178   359.95329357
 H    102  93  86     2.052080623186   120.65034229   179.97407488
 H    103  94  86     2.054099637656   119.60566212   179.98002844
 H    105  97  88     2.054086578695   119.60195998   179.96807809
 C    108  99  90     2.630398846041   117.70054473   180.07458053
 H    108  99  90     2.052085566031   120.64491542     0.06735401
 C    109 100  99     2.630398846041   117.70054473     0.00000000
 H    109 100  99     2.052085566031   120.64491542   180.01788900
 H    110 102  93     2.054086578695   119.60195998   180.03192191
 H    114 108  99     2.054090663703   119.60329058   180.00845909
 H    116 109 100     2.054090663703   119.60329058   179.99154091

---------------------
BASIS SET INFORMATION
---------------------
There are 4 groups of distinct atoms

 Group   1 Type C   : 11s6p2d contracted to 5s3p2d pattern {62111/411/11}
 Group   2 Type H   : 5s1p contracted to 3s1p pattern {311/1}
 Group   3 Type N   : 11s6p2d contracted to 5s3p2d pattern {62111/411/11}
 Group   4 Type Zn  : 17s12p7d1f contracted to 6s5p4d1f pattern {842111/63111/4111/1}

Atom   0C    basis set group =>   1
Atom   1C    basis set group =>   1
Atom   2H    basis set group =>   2
Atom   3H    basis set group =>   2
Atom   4C    basis set group =>   1
Atom   5H    basis set group =>   2
Atom   6C    basis set group =>   1
Atom   7H    basis set group =>   2
Atom   8C    basis set group =>   1
Atom   9C    basis set group =>   1
Atom  10C    basis set group =>   1
Atom  11H    basis set group =>   2
Atom  12C    basis set group =>   1
Atom  13H    basis set group =>   2
Atom  14C    basis set group =>   1
Atom  15C    basis set group =>   1
Atom  16C    basis set group =>   1
Atom  17C    basis set group =>   1
Atom  18H    basis set group =>   2
Atom  19H    basis set group =>   2
Atom  20H    basis set group =>   2
Atom  21H    basis set group =>   2
Atom  22C    basis set group =>   1
Atom  23C    basis set group =>   1
Atom  24C    basis set group =>   1
Atom  25C    basis set group =>   1
Atom  26N    basis set group =>   3
Atom  27N    basis set group =>   3
Atom  28N    basis set group =>   3
Atom  29C    basis set group =>   1
Atom  30Zn   basis set group =>   4
Atom  31C    basis set group =>   1
Atom  32C    basis set group =>   1
Atom  33N    basis set group =>   3
Atom  34N    basis set group =>   3
Atom  35N    basis set group =>   3
Atom  36C    basis set group =>   1
Atom  37C    basis set group =>   1
Atom  38C    basis set group =>   1
Atom  39C    basis set group =>   1
Atom  40C    basis set group =>   1
Atom  41C    basis set group =>   1
Atom  42C    basis set group =>   1
Atom  43C    basis set group =>   1
Atom  44C    basis set group =>   1
Atom  45C    basis set group =>   1
Atom  46H    basis set group =>   2
Atom  47C    basis set group =>   1
Atom  48N    basis set group =>   3
Atom  49C    basis set group =>   1
Atom  50C    basis set group =>   1
Atom  51N    basis set group =>   3
Atom  52C    basis set group =>   1
Atom  53C    basis set group =>   1
Atom  54H    basis set group =>   2
Atom  55C    basis set group =>   1
Atom  56H    basis set group =>   2
Atom  57H    basis set group =>   2
Atom  58C    basis set group =>   1
Atom  59C    basis set group =>   1
Atom  60C    basis set group =>   1
Atom  61H    basis set group =>   2
Atom  62H    basis set group =>   2
Atom  63H    basis set group =>   2
Atom  64C    basis set group =>   1
Atom  65H    basis set group =>   2
Atom  66C    basis set group =>   1
Atom  67H    basis set group =>   2
Atom  68H    basis set group =>   2
Atom  69H    basis set group =>   2
Atom  70H    basis set group =>   2
Atom  71C    basis set group =>   1
Atom  72C    basis set group =>   1
Atom  73C    basis set group =>   1
Atom  74C    basis set group =>   1
Atom  75N    basis set group =>   3
Atom  76N    basis set group =>   3
Atom  77N    basis set group =>   3
Atom  78C    basis set group =>   1
Atom  79Zn   basis set group =>   4
Atom  80C    basis set group =>   1
Atom  81C    basis set group =>   1
Atom  82N    basis set group =>   3
Atom  83N    basis set group =>   3
Atom  84N    basis set group =>   3
Atom  85C    basis set group =>   1
Atom  86C    basis set group =>   1
Atom  87C    basis set group =>   1
Atom  88C    basis set group =>   1
Atom  89C    basis set group =>   1
Atom  90C    basis set group =>   1
Atom  91C    basis set group =>   1
Atom  92C    basis set group =>   1
Atom  93C    basis set group =>   1
Atom  94C    basis set group =>   1
Atom  95H    basis set group =>   2
Atom  96C    basis set group =>   1
Atom  97N    basis set group =>   3
Atom  98C    basis set group =>   1
Atom  99C    basis set group =>   1
Atom 100N    basis set group =>   3
Atom 101C    basis set group =>   1
Atom 102C    basis set group =>   1
Atom 103H    basis set group =>   2
Atom 104C    basis set group =>   1
Atom 105H    basis set group =>   2
Atom 106H    basis set group =>   2
Atom 107C    basis set group =>   1
Atom 108C    basis set group =>   1
Atom 109C    basis set group =>   1
Atom 110H    basis set group =>   2
Atom 111H    basis set group =>   2
Atom 112H    basis set group =>   2
Atom 113C    basis set group =>   1
Atom 114H    basis set group =>   2
Atom 115C    basis set group =>   1
Atom 116H    basis set group =>   2
Atom 117H    basis set group =>   2
Atom 118H    basis set group =>   2
Atom 119H    basis set group =>   2
---------------------------------
AUXILIARY/J BASIS SET INFORMATION
---------------------------------
There are 4 groups of distinct atoms

 Group   1 Type C   : 12s5p4d2f1g contracted to 6s4p3d1f1g pattern {711111/2111/211/2/1}
 Group   2 Type H   : 5s2p1d contracted to 3s1p1d pattern {311/2/1}
 Group   3 Type N   : 12s5p4d2f1g contracted to 6s4p3d1f1g pattern {711111/2111/211/2/1}
 Group   4 Type Zn  : 19s5p5d3f3g contracted to 8s5p5d2f3g pattern {121111111/11111/11111/21/111}

Atom   0C    basis set group =>   1
Atom   1C    basis set group =>   1
Atom   2H    basis set group =>   2
Atom   3H    basis set group =>   2
Atom   4C    basis set group =>   1
Atom   5H    basis set group =>   2
Atom   6C    basis set group =>   1
Atom   7H    basis set group =>   2
Atom   8C    basis set group =>   1
Atom   9C    basis set group =>   1
Atom  10C    basis set group =>   1
Atom  11H    basis set group =>   2
Atom  12C    basis set group =>   1
Atom  13H    basis set group =>   2
Atom  14C    basis set group =>   1
Atom  15C    basis set group =>   1
Atom  16C    basis set group =>   1
Atom  17C    basis set group =>   1
Atom  18H    basis set group =>   2
Atom  19H    basis set group =>   2
Atom  20H    basis set group =>   2
Atom  21H    basis set group =>   2
Atom  22C    basis set group =>   1
Atom  23C    basis set group =>   1
Atom  24C    basis set group =>   1
Atom  25C    basis set group =>   1
Atom  26N    basis set group =>   3
Atom  27N    basis set group =>   3
Atom  28N    basis set group =>   3
Atom  29C    basis set group =>   1
Atom  30Zn   basis set group =>   4
Atom  31C    basis set group =>   1
Atom  32C    basis set group =>   1
Atom  33N    basis set group =>   3
Atom  34N    basis set group =>   3
Atom  35N    basis set group =>   3
Atom  36C    basis set group =>   1
Atom  37C    basis set group =>   1
Atom  38C    basis set group =>   1
Atom  39C    basis set group =>   1
Atom  40C    basis set group =>   1
Atom  41C    basis set group =>   1
Atom  42C    basis set group =>   1
Atom  43C    basis set group =>   1
Atom  44C    basis set group =>   1
Atom  45C    basis set group =>   1
Atom  46H    basis set group =>   2
Atom  47C    basis set group =>   1
Atom  48N    basis set group =>   3
Atom  49C    basis set group =>   1
Atom  50C    basis set group =>   1
Atom  51N    basis set group =>   3
Atom  52C    basis set group =>   1
Atom  53C    basis set group =>   1
Atom  54H    basis set group =>   2
Atom  55C    basis set group =>   1
Atom  56H    basis set group =>   2
Atom  57H    basis set group =>   2
Atom  58C    basis set group =>   1
Atom  59C    basis set group =>   1
Atom  60C    basis set group =>   1
Atom  61H    basis set group =>   2
Atom  62H    basis set group =>   2
Atom  63H    basis set group =>   2
Atom  64C    basis set group =>   1
Atom  65H    basis set group =>   2
Atom  66C    basis set group =>   1
Atom  67H    basis set group =>   2
Atom  68H    basis set group =>   2
Atom  69H    basis set group =>   2
Atom  70H    basis set group =>   2
Atom  71C    basis set group =>   1
Atom  72C    basis set group =>   1
Atom  73C    basis set group =>   1
Atom  74C    basis set group =>   1
Atom  75N    basis set group =>   3
Atom  76N    basis set group =>   3
Atom  77N    basis set group =>   3
Atom  78C    basis set group =>   1
Atom  79Zn   basis set group =>   4
Atom  80C    basis set group =>   1
Atom  81C    basis set group =>   1
Atom  82N    basis set group =>   3
Atom  83N    basis set group =>   3
Atom  84N    basis set group =>   3
Atom  85C    basis set group =>   1
Atom  86C    basis set group =>   1
Atom  87C    basis set group =>   1
Atom  88C    basis set group =>   1
Atom  89C    basis set group =>   1
Atom  90C    basis set group =>   1
Atom  91C    basis set group =>   1
Atom  92C    basis set group =>   1
Atom  93C    basis set group =>   1
Atom  94C    basis set group =>   1
Atom  95H    basis set group =>   2
Atom  96C    basis set group =>   1
Atom  97N    basis set group =>   3
Atom  98C    basis set group =>   1
Atom  99C    basis set group =>   1
Atom 100N    basis set group =>   3
Atom 101C    basis set group =>   1
Atom 102C    basis set group =>   1
Atom 103H    basis set group =>   2
Atom 104C    basis set group =>   1
Atom 105H    basis set group =>   2
Atom 106H    basis set group =>   2
Atom 107C    basis set group =>   1
Atom 108C    basis set group =>   1
Atom 109C    basis set group =>   1
Atom 110H    basis set group =>   2
Atom 111H    basis set group =>   2
Atom 112H    basis set group =>   2
Atom 113C    basis set group =>   1
Atom 114H    basis set group =>   2
Atom 115C    basis set group =>   1
Atom 116H    basis set group =>   2
Atom 117H    basis set group =>   2
Atom 118H    basis set group =>   2
Atom 119H    basis set group =>   2

Checking for AutoStart:
The File: /media/sergey/f823ebf4-a37f-4464-97a4-90311f85c47f1/makar/orca/ZnPc-gable/ZnPc-gable.gbw exists
Trying to determine its content:
     ... Fine, the file contains calculation information
     ... Fine, the calculation information was read
     ... Fine, the file contains a basis set
     ... Fine, the basis set was read
     ... Fine, the file contains a geometry
     ... Fine, the geometry was read
     ... Fine, the file contains a set of orbitals
     ... Fine, the orbitals can be read
     => possible old guess file was deleted
     => GBW file was renamed to GES file
     => GES file is set as startup file
     => Guess is set to MORead
     ... now leaving AutoStart



           ************************************************************
           *        Program running with 5 parallel MPI-processes     *
           *              working on a common directory               *
           ************************************************************
------------------------------------------------------------------------------
                           ORCA GTO INTEGRAL CALCULATION
                           -- RI-GTO INTEGRALS CHOSEN --
------------------------------------------------------------------------------

                         BASIS SET STATISTICS AND STARTUP INFO

Gaussian basis set:
 # of primitive gaussian shells          ... 1874
 # of primitive gaussian functions       ... 3738
 # of contracted shells                  ... 1008
 # of contracted basis functions         ... 2316
 Highest angular momentum                ...    3
 Maximum contraction depth               ...    8
Auxiliary gaussian basis set:
 # of primitive gaussian shells          ... 2358
 # of primitive gaussian functions       ... 6638
 # of contracted shells                  ... 1476
 # of contracted aux-basis functions     ... 4668
 Highest angular momentum                ...    4
 Maximum contraction depth               ...   12
Ratio of auxiliary to basis functions    ...  2.02
Integral package used                  ... LIBINT
 One Electron integrals                  ... done
 Ordering auxiliary basis shells         ... done
 Integral threshhold             Thresh  ...  1.000e-10
 Primitive cut-off               TCut    ...  1.000e-11
 Pre-screening matrix                    ... done
 Shell pair data                         ... 
 Ordering of the shell pairs             ... done (   0.028 sec) 156655 of 508536 pairs
 Determination of significant pairs      ... done (   0.002 sec)
 Creation of shell pair data             ... done (   0.014 sec)
 Storage of shell pair data              ... done (   0.049 sec)
 Shell pair data done in (   0.093 sec)
 Computing two index integrals           ... done
 Cholesky decomposition of the V-matrix  ... done


Timings:
 Total evaluation time                   ...   5.357 sec (  0.089 min)
 One electron matrix time                ...   1.683 sec (  0.028 min) = 31.4%
 Schwartz matrix evaluation time         ...   1.970 sec (  0.033 min) = 36.8%
 Two index repulsion integral time       ...   0.334 sec (  0.006 min) =  6.2%
 Cholesky decomposition of V             ...   1.240 sec (  0.021 min) = 23.1%
 Three index repulsion integral time     ...   0.000 sec (  0.000 min) =  0.0%



           ************************************************************
           *        Program running with 5 parallel MPI-processes     *
           *              working on a common directory               *
           ************************************************************
-------------------------------------------------------------------------------
                                 ORCA SCF
-------------------------------------------------------------------------------

------------
SCF SETTINGS
------------
Hamiltonian:
 Density Functional     Method          .... DFT(GTOs)
 Exchange Functional    Exchange        .... WB88
 Correlation Functional Correlation     .... LYP
 Gradients option       PostSCFGGA      .... off
   Density functional embedding theory  .... OFF
 Long-range corrected/Screened/Range-Separated Hybrid DFT is turned on
   Amount of maximum screened exact exchange              ....  1.000000
   Range separation parameter mu (erf(mu*r12)/r12)        ....  0.400000
 RI-approximation to the Coulomb term is turned on
   Number of auxiliary basis functions  .... 4668
   RIJ-COSX (HFX calculated with COS-X)).... on


General Settings:
 Integral files         IntName         .... /media/sergey/f823ebf4-a37f-4464-97a4-90311f85c47f1/makar/orca/ZnPc-gable/ZnPc-gable
 Hartree-Fock type      HFTyp           .... RHF
 Total Charge           Charge          ....    0
 Multiplicity           Mult            ....    1
 Number of Electrons    NEL             ....  614
 Basis Dimension        Dim             .... 2316
 Nuclear Repulsion      ENuc            ....  14628.7636519632 Eh

Convergence Acceleration:
 DIIS                   CNVDIIS         .... on
   Start iteration      DIISMaxIt       ....    12
   Startup error        DIISStart       ....  0.200000
   # of expansion vecs  DIISMaxEq       ....     5
   Bias factor          DIISBfac        ....   1.050
   Max. coefficient     DIISMaxC        ....  10.000
 Newton-Raphson         CNVNR           .... off
 SOSCF                  CNVSOSCF        .... off
 Level Shifting         CNVShift        .... on
   Level shift para.    LevelShift      ....    0.2500
   Turn off err/grad.   ShiftErr        ....    0.0010
 Zerner damping         CNVZerner       .... off
 Static damping         CNVDamp         .... on
   Fraction old density DampFac         ....    0.7000
   Max. Damping (<1)    DampMax         ....    0.9800
   Min. Damping (>=0)   DampMin         ....    0.0000
   Turn off err/grad.   DampErr         ....    0.1000
 Fernandez-Rico         CNVRico         .... off

SCF Procedure:
 Maximum # iterations   MaxIter         ....   125
 SCF integral mode      SCFMode         .... Direct
   Integral package                     .... LIBINT
 Reset frequency        DirectResetFreq ....    20
 Integral Threshold     Thresh          ....  1.000e-10 Eh
 Primitive CutOff       TCut            ....  1.000e-11 Eh

Convergence Tolerance:
 Convergence Check Mode ConvCheckMode   .... Total+1el-Energy
 Convergence forced     ConvForced      .... 1
 Energy Change          TolE            ....  1.000e-06 Eh
 1-El. energy change                    ....  1.000e-03 Eh
 DIIS Error             TolErr          ....  1.000e-06


Diagonalization of the overlap matrix:
Smallest eigenvalue                        ... 1.979e-06
Time for diagonalization                   ...    1.707 sec
Threshold for overlap eigenvalues          ... 1.000e-08
Number of eigenvalues below threshold      ... 0
Time for construction of square roots      ...    0.856 sec
Total time needed                          ...    2.575 sec

---------------------
INITIAL GUESS: MOREAD
---------------------
Guess MOs are being read from file: /media/sergey/f823ebf4-a37f-4464-97a4-90311f85c47f1/makar/orca/ZnPc-gable/ZnPc-gable.ges
Input Geometry matches current geometry (good)
Input basis set matches current basis set (good)
MOs were renormalized
MOs were reorthogonalized (Cholesky)
                      ------------------
                      INITIAL GUESS DONE (   4.4 sec)
                      ------------------
-------------------
DFT GRID GENERATION
-------------------

General Integration Accuracy     IntAcc      ...  5.010
Radial Grid Type                 RadialGrid  ... Gauss-Chebyshev
Angular Grid (max. acc.)         AngularGrid ... Lebedev-434
Angular grid pruning method      GridPruning ... 3 (G Style)
Weight generation scheme         WeightScheme... Becke
Basis function cutoff            BFCut       ...    1.0000e-10
Integration weight cutoff        WCut        ...    1.0000e-14
Grids for H and He will be reduced by one unit

# of grid points (after initial pruning)     ... 1156404 (   0.1 sec)
# of grid points (after weights+screening)   ... 979972 (  15.0 sec)
nearest neighbour list constructed           ...    0.0 sec
Grid point re-assignment to atoms done       ...    0.2 sec
Grid point division into batches done        ...    4.6 sec
Reduced shell lists constructed in    8.8 sec

Total number of grid points                  ...   979972
Total number of batches                      ...    15384
Average number of points per batch           ...       63
Average number of grid points per atom       ...     8166
Average number of shells per batch           ...   171.19 (16.98%)
Average number of basis functions per batch  ...   387.48 (16.73%)
Average number of large shells per batch     ...    99.64 (58.20%)
Average number of large basis fcns per batch ...   228.02 (58.85%)
Maximum spatial batch extension              ...  14.05, 19.45, 20.12 au
Average spatial batch extension              ...   0.29,  0.30,  0.34 au

Time for grid setup =   24.059 sec

--------------------
COSX GRID GENERATION
--------------------

General Integration Accuracy     IntAcc      ...  3.670
Radial Grid Type                 RadialGrid  ... Gauss-Chebyshev
Angular Grid (max. acc.)         AngularGrid ... Lebedev-50
Angular grid pruning method      GridPruning ... 3 (G Style)
Weight generation scheme         WeightScheme... Becke
Basis function cutoff            BFCut       ...    1.0000e-10
Integration weight cutoff        WCut        ...    1.0000e-14
Grids for H and He will be reduced by one unit

# of grid points (after initial pruning)     ...  76588 (   0.0 sec)
# of grid points (after weights+screening)   ...  68070 (   1.0 sec)
nearest neighbour list constructed           ...    0.0 sec
Grid point re-assignment to atoms done       ...    0.0 sec
Grid point division into batches done        ...    0.0 sec
Reduced shell lists constructed in    0.4 sec

Total number of grid points                  ...    68070
Total number of batches                      ...     1124
Average number of points per batch           ...       60
Average number of grid points per atom       ...      567
Average number of shells per batch           ...   211.23 (20.95%)
Average number of basis functions per batch  ...   480.24 (20.74%)
Average number of large shells per batch     ...   123.29 (58.37%)
Average number of large basis fcns per batch ...   286.68 (59.70%)
Maximum spatial batch extension              ...  16.54, 18.15, 30.10 au
Average spatial batch extension              ...   0.68,  0.77,  0.97 au

Overlap Fitting                  UseSFitting ... on
Constructing numerical overlap ... done (      0.5 sec)
Inverting numerical overlap    ... done (      0.3 sec)
Obtaining analytic overlap     ... done (      0.0 sec)
Final contraction and storage  ... done (      0.5 sec)


General Integration Accuracy     IntAcc      ...  4.010
Radial Grid Type                 RadialGrid  ... Gauss-Chebyshev
Angular Grid (max. acc.)         AngularGrid ... Lebedev-50
Angular grid pruning method      GridPruning ... 3 (G Style)
Weight generation scheme         WeightScheme... Becke
Basis function cutoff            BFCut       ...    1.0000e-10
Integration weight cutoff        WCut        ...    1.0000e-14
Grids for H and He will be reduced by one unit

# of grid points (after initial pruning)     ...  93032 (   0.0 sec)
# of grid points (after weights+screening)   ...  82494 (   1.2 sec)
nearest neighbour list constructed           ...    0.0 sec
Grid point re-assignment to atoms done       ...    0.0 sec
Grid point division into batches done        ...    0.0 sec
Reduced shell lists constructed in    0.5 sec

Total number of grid points                  ...    82494
Total number of batches                      ...     1350
Average number of points per batch           ...       61
Average number of grid points per atom       ...      687
Average number of shells per batch           ...   208.36 (20.67%)
Average number of basis functions per batch  ...   473.62 (20.45%)
Average number of large shells per batch     ...   121.64 (58.38%)
Average number of large basis fcns per batch ...   282.79 (59.71%)
Maximum spatial batch extension              ...  18.69, 18.40, 23.00 au
Average spatial batch extension              ...   0.63,  0.72,  0.90 au

Overlap Fitting                  UseSFitting ... on
Constructing numerical overlap ... done (      0.6 sec)
Inverting numerical overlap    ... done (      0.3 sec)
Obtaining analytic overlap     ... done (      0.0 sec)
Final contraction and storage  ... done (      0.5 sec)

Time for X-Grid setup             =    5.798 sec
--------------
SCF ITERATIONS
--------------
ITER       Energy         Delta-E        Max-DP      RMS-DP      [F,P]     Damp
               ***  Starting incremental Fock matrix formation  ***
  0  -7037.9808472523   0.000000000000 0.00006103  0.00000041  0.0000123 0.7000
                 **** Energy Check signals convergence ****

               *****************************************************
               *                     SUCCESS                       *
               *           SCF CONVERGED AFTER   1 CYCLES          *
               *****************************************************


----------------
TOTAL SCF ENERGY
----------------

Total Energy       :        -7037.98084760 Eh         -191513.19521 eV

Components:
Nuclear Repulsion  :        14628.76365196 Eh          398068.89640 eV
Electronic Energy  :       -21666.74449956 Eh         -589582.09161 eV
One Electron Energy:       -38859.07894775 Eh        -1057409.29582 eV
Two Electron Energy:        17192.33444819 Eh          467827.20421 eV

Virial components:
Potential Energy   :       -14057.28961089 Eh         -382518.29717 eV
Kinetic Energy     :         7019.30876330 Eh          191005.10196 eV
Virial Ratio       :            2.00266010


DFT components:
N(Alpha)           :      306.999995647251 electrons
N(Beta)            :      306.999995647251 electrons
N(Total)           :      613.999991294502 electrons
E(XC)              :     -501.882286076666 Eh       
DFET-embed. en.    :        0.000000000000 Eh       

---------------
SCF CONVERGENCE
---------------

  Last Energy change         ...   -3.4408e-07  Tolerance :   1.0000e-06
  Last MAX-Density change    ...    4.4156e-05  Tolerance :   1.0000e-05
  Last RMS-Density change    ...    2.0802e-07  Tolerance :   1.0000e-06
  Last DIIS Error            ...    4.7016e-06  Tolerance :   1.0000e-06

             **** THE GBW FILE WAS UPDATED (/media/sergey/f823ebf4-a37f-4464-97a4-90311f85c47f1/makar/orca/ZnPc-gable/ZnPc-gable.gbw) ****
             **** DENSITY FILE WAS UPDATED (/media/sergey/f823ebf4-a37f-4464-97a4-90311f85c47f1/makar/orca/ZnPc-gable/ZnPc-gable.scfp) ****
             **** ENERGY FILE WAS UPDATED (/media/sergey/f823ebf4-a37f-4464-97a4-90311f85c47f1/makar/orca/ZnPc-gable/ZnPc-gable.en.tmp) ****
             **** THE GBW FILE WAS UPDATED (/media/sergey/f823ebf4-a37f-4464-97a4-90311f85c47f1/makar/orca/ZnPc-gable/ZnPc-gable.gbw) ****
             **** DENSITY FILE WAS UPDATED (/media/sergey/f823ebf4-a37f-4464-97a4-90311f85c47f1/makar/orca/ZnPc-gable/ZnPc-gable.scfp) ****
----------------
ORBITAL ENERGIES
----------------

  NO   OCC          E(Eh)            E(eV) 
   0   2.0000    -345.998606     -9415.1007 
   1   2.0000    -345.998606     -9415.1007 
   2   2.0000     -41.862275     -1139.1304 
   3   2.0000     -41.862274     -1139.1304 
   4   2.0000     -36.946147     -1005.3558 
   5   2.0000     -36.946147     -1005.3558 
   6   2.0000     -36.936015     -1005.0801 
   7   2.0000     -36.936014     -1005.0800 
   8   2.0000     -36.935985     -1005.0792 
   9   2.0000     -36.935984     -1005.0792 
  10   2.0000     -14.226971      -387.1356 
  11   2.0000     -14.226971      -387.1356 
  12   2.0000     -14.226889      -387.1333 
  13   2.0000     -14.226888      -387.1333 
  14   2.0000     -14.226871      -387.1329 
  15   2.0000     -14.226871      -387.1328 
  16   2.0000     -14.225794      -387.1035 
  17   2.0000     -14.225794      -387.1035 
  18   2.0000     -14.217871      -386.8879 
  19   2.0000     -14.217871      -386.8879 
  20   2.0000     -14.217866      -386.8878 
  21   2.0000     -14.217866      -386.8878 
  22   2.0000     -14.217800      -386.8860 
  23   2.0000     -14.217800      -386.8860 
  24   2.0000     -14.217795      -386.8859 
  25   2.0000     -14.217795      -386.8859 
  26   2.0000     -10.193536      -277.3802 
  27   2.0000     -10.193535      -277.3802 
  28   2.0000     -10.193529      -277.3800 
  29   2.0000     -10.193529      -277.3800 
  30   2.0000     -10.193359      -277.3754 
  31   2.0000     -10.193358      -277.3754 
  32   2.0000     -10.193295      -277.3737 
  33   2.0000     -10.193293      -277.3736 
  34   2.0000     -10.193228      -277.3718 
  35   2.0000     -10.193228      -277.3718 
  36   2.0000     -10.193222      -277.3717 
  37   2.0000     -10.193221      -277.3716 
  38   2.0000     -10.193128      -277.3691 
  39   2.0000     -10.193127      -277.3691 
  40   2.0000     -10.193062      -277.3673 
  41   2.0000     -10.193061      -277.3673 
  42   2.0000     -10.130021      -275.6519 
  43   2.0000     -10.129971      -275.6505 
  44   2.0000     -10.126756      -275.5630 
  45   2.0000     -10.126753      -275.5629 
  46   2.0000     -10.126435      -275.5543 
  47   2.0000     -10.126418      -275.5538 
  48   2.0000     -10.124090      -275.4905 
  49   2.0000     -10.124089      -275.4905 
  50   2.0000     -10.124086      -275.4904 
  51   2.0000     -10.124086      -275.4904 
  52   2.0000     -10.123770      -275.4818 
  53   2.0000     -10.123769      -275.4818 
  54   2.0000     -10.123746      -275.4811 
  55   2.0000     -10.123745      -275.4811 
  56   2.0000     -10.123744      -275.4811 
  57   2.0000     -10.123743      -275.4811 
  58   2.0000     -10.123425      -275.4724 
  59   2.0000     -10.123425      -275.4724 
  60   2.0000     -10.123249      -275.4676 
  61   2.0000     -10.123248      -275.4676 
  62   2.0000     -10.122934      -275.4590 
  63   2.0000     -10.122932      -275.4590 
  64   2.0000     -10.122623      -275.4506 
  65   2.0000     -10.122623      -275.4506 
  66   2.0000     -10.122620      -275.4505 
  67   2.0000     -10.122620      -275.4505 
  68   2.0000     -10.122492      -275.4470 
  69   2.0000     -10.122492      -275.4470 
  70   2.0000     -10.122487      -275.4469 
  71   2.0000     -10.122487      -275.4469 
  72   2.0000     -10.122307      -275.4420 
  73   2.0000     -10.122306      -275.4419 
  74   2.0000     -10.122303      -275.4419 
  75   2.0000     -10.122301      -275.4418 
  76   2.0000     -10.122201      -275.4391 
  77   2.0000     -10.122201      -275.4391 
  78   2.0000     -10.122172      -275.4383 
  79   2.0000     -10.122172      -275.4383 
  80   2.0000     -10.120931      -275.4045 
  81   2.0000     -10.120930      -275.4045 
  82   2.0000     -10.120930      -275.4045 
  83   2.0000     -10.120930      -275.4045 
  84   2.0000     -10.120586      -275.3951 
  85   2.0000     -10.120585      -275.3951 
  86   2.0000     -10.120539      -275.3939 
  87   2.0000     -10.120539      -275.3939 
  88   2.0000     -10.120539      -275.3939 
  89   2.0000     -10.120538      -275.3938 
  90   2.0000     -10.120196      -275.3845 
  91   2.0000     -10.120195      -275.3845 
  92   2.0000     -10.115229      -275.2494 
  93   2.0000     -10.115129      -275.2466 
  94   2.0000      -4.814220      -131.0016 
  95   2.0000      -4.814219      -131.0016 
  96   2.0000      -3.260265       -88.7163 
  97   2.0000      -3.260264       -88.7163 
  98   2.0000      -3.245801       -88.3227 
  99   2.0000      -3.245800       -88.3227 
 100   2.0000      -3.245762       -88.3217 
 101   2.0000      -3.245762       -88.3217 
 102   2.0000      -1.159027       -31.5387 
 103   2.0000      -1.159022       -31.5386 
 104   2.0000      -1.144014       -31.1302 
 105   2.0000      -1.144012       -31.1301 
 106   2.0000      -1.143707       -31.1219 
 107   2.0000      -1.143690       -31.1214 
 108   2.0000      -1.114864       -30.3370 
 109   2.0000      -1.114823       -30.3359 
 110   2.0000      -1.091986       -29.7144 
 111   2.0000      -1.091985       -29.7144 
 112   2.0000      -1.055781       -28.7293 
 113   2.0000      -1.049190       -28.5499 
 114   2.0000      -1.049187       -28.5498 
 115   2.0000      -1.049055       -28.5462 
 116   2.0000      -1.047037       -28.4913 
 117   2.0000      -1.017377       -27.6842 
 118   2.0000      -1.016297       -27.6549 
 119   2.0000      -1.005580       -27.3632 
 120   2.0000      -1.005575       -27.3631 
 121   2.0000      -1.005117       -27.3506 
 122   2.0000      -1.005090       -27.3499 
 123   2.0000      -1.004630       -27.3374 
 124   2.0000      -1.004244       -27.3269 
 125   2.0000      -1.003656       -27.3109 
 126   2.0000      -0.974676       -26.5223 
 127   2.0000      -0.939417       -25.5628 
 128   2.0000      -0.922133       -25.0925 
 129   2.0000      -0.919199       -25.0127 
 130   2.0000      -0.908816       -24.7301 
 131   2.0000      -0.908467       -24.7207 
 132   2.0000      -0.906842       -24.6764 
 133   2.0000      -0.905774       -24.6474 
 134   2.0000      -0.905609       -24.6429 
 135   2.0000      -0.905177       -24.6311 
 136   2.0000      -0.903167       -24.5764 
 137   2.0000      -0.902207       -24.5503 
 138   2.0000      -0.902024       -24.5453 
 139   2.0000      -0.900915       -24.5151 
 140   2.0000      -0.899667       -24.4812 
 141   2.0000      -0.898619       -24.4527 
 142   2.0000      -0.896431       -24.3931 
 143   2.0000      -0.881254       -23.9801 
 144   2.0000      -0.863309       -23.4918 
 145   2.0000      -0.855674       -23.2841 
 146   2.0000      -0.837486       -22.7892 
 147   2.0000      -0.835278       -22.7291 
 148   2.0000      -0.835033       -22.7224 
 149   2.0000      -0.829155       -22.5624 
 150   2.0000      -0.814643       -22.1676 
 151   2.0000      -0.779258       -21.2047 
 152   2.0000      -0.779247       -21.2044 
 153   2.0000      -0.776620       -21.1329 
 154   2.0000      -0.774436       -21.0735 
 155   2.0000      -0.769913       -20.9504 
 156   2.0000      -0.769735       -20.9456 
 157   2.0000      -0.765614       -20.8334 
 158   2.0000      -0.762135       -20.7387 
 159   2.0000      -0.761031       -20.7087 
 160   2.0000      -0.760951       -20.7065 
 161   2.0000      -0.758337       -20.6354 
 162   2.0000      -0.744456       -20.2577 
 163   2.0000      -0.740642       -20.1539 
 164   2.0000      -0.734221       -19.9792 
 165   2.0000      -0.733638       -19.9633 
 166   2.0000      -0.733292       -19.9539 
 167   2.0000      -0.733159       -19.9503 
 168   2.0000      -0.732610       -19.9353 
 169   2.0000      -0.725738       -19.7483 
 170   2.0000      -0.721225       -19.6255 
 171   2.0000      -0.696661       -18.9571 
 172   2.0000      -0.694957       -18.9108 
 173   2.0000      -0.688643       -18.7389 
 174   2.0000      -0.685458       -18.6523 
 175   2.0000      -0.685433       -18.6516 
 176   2.0000      -0.679627       -18.4936 
 177   2.0000      -0.679114       -18.4796 
 178   2.0000      -0.672334       -18.2951 
 179   2.0000      -0.670163       -18.2361 
 180   2.0000      -0.669122       -18.2077 
 181   2.0000      -0.668419       -18.1886 
 182   2.0000      -0.665985       -18.1224 
 183   2.0000      -0.661044       -17.9879 
 184   2.0000      -0.644255       -17.5311 
 185   2.0000      -0.632673       -17.2159 
 186   2.0000      -0.631849       -17.1935 
 187   2.0000      -0.631764       -17.1912 
 188   2.0000      -0.630860       -17.1666 
 189   2.0000      -0.630422       -17.1547 
 190   2.0000      -0.630015       -17.1436 
 191   2.0000      -0.623494       -16.9661 
 192   2.0000      -0.620794       -16.8927 
 193   2.0000      -0.615038       -16.7360 
 194   2.0000      -0.614936       -16.7332 
 195   2.0000      -0.614935       -16.7332 
 196   2.0000      -0.614917       -16.7327 
 197   2.0000      -0.612672       -16.6717 
 198   2.0000      -0.612124       -16.6567 
 199   2.0000      -0.611387       -16.6367 
 200   2.0000      -0.608694       -16.5634 
 201   2.0000      -0.607778       -16.5385 
 202   2.0000      -0.605443       -16.4749 
 203   2.0000      -0.597206       -16.2508 
 204   2.0000      -0.597157       -16.2495 
 205   2.0000      -0.594954       -16.1895 
 206   2.0000      -0.592516       -16.1232 
 207   2.0000      -0.592206       -16.1148 
 208   2.0000      -0.587414       -15.9844 
 209   2.0000      -0.586646       -15.9635 
 210   2.0000      -0.585957       -15.9447 
 211   2.0000      -0.585601       -15.9350 
 212   2.0000      -0.585141       -15.9225 
 213   2.0000      -0.583090       -15.8667 
 214   2.0000      -0.581102       -15.8126 
[...]
   280a -> 311a  :     0.022573 
   281a -> 312a  :     0.022000 
   284a -> 308a  :     0.012131 
   285a -> 308a  :     0.426168 
   286a -> 309a  :     0.431829 

STATE 31:  E=   0.165830 au      4.512 eV    36395.4 cm**-1
   279a -> 312a  :     0.022696 
   282a -> 311a  :     0.021689 
   284a -> 310a  :     0.011933 
   285a -> 310a  :     0.420230 
   286a -> 307a  :     0.439103 

STATE 32:  E=   0.165833 au      4.513 eV    36396.2 cm**-1
   279a -> 311a  :     0.021598 
   282a -> 312a  :     0.022652 
   284a -> 307a  :     0.012096 
   285a -> 307a  :     0.428665 
   286a -> 310a  :     0.430326 

STATE 33:  E=   0.166383 au      4.528 eV    36516.8 cm**-1
   297a -> 309a  :     0.021231 
   298a -> 308a  :     0.021271 
   299a -> 310a  :     0.020856 
   300a -> 307a  :     0.017367 
   305a -> 314a  :     0.109210 
   305a -> 315a  :     0.053573 
   305a -> 316a  :     0.199947 
   305a -> 320a  :     0.019543 
   306a -> 313a  :     0.251598 
   306a -> 314a  :     0.058994 
   306a -> 315a  :     0.118808 
   306a -> 317a  :     0.025118 

STATE 34:  E=   0.166495 au      4.531 eV    36541.4 cm**-1
   297a -> 308a  :     0.020824 
   298a -> 309a  :     0.021038 
   299a -> 307a  :     0.020375 
   300a -> 310a  :     0.016072 
   305a -> 313a  :     0.248486 
   305a -> 314a  :     0.056315 
   305a -> 315a  :     0.114405 
   305a -> 317a  :     0.027410 
   306a -> 314a  :     0.108866 
   306a -> 315a  :     0.054185 
   306a -> 316a  :     0.211418 
   306a -> 320a  :     0.018739 

STATE 35:  E=   0.170173 au      4.631 eV    37348.6 cm**-1
   287a -> 309a  :     0.033026 
   288a -> 308a  :     0.020168 
   289a -> 311a  :     0.012637 
   290a -> 312a  :     0.010658 
   291a -> 309a  :     0.015641 
   293a -> 309a  :     0.027659 
   294a -> 308a  :     0.029828 
   295a -> 307a  :     0.117415 
   295a -> 311a  :     0.018266 
   296a -> 310a  :     0.095887 
   296a -> 312a  :     0.014483 
   297a -> 310a  :     0.016230 
   298a -> 307a  :     0.018710 
   299a -> 309a  :     0.036654 
   300a -> 308a  :     0.019411 
   301a -> 309a  :     0.014252 
   301a -> 320a  :     0.025147 
   302a -> 308a  :     0.016291 
   304a -> 308a  :     0.145079 
   304a -> 313a  :     0.105537 
   304a -> 317a  :     0.018240 
   305a -> 312a  :     0.018630 
   306a -> 311a  :     0.012967 

STATE 36:  E=   0.171798 au      4.675 eV    37705.2 cm**-1
   289a -> 312a  :     0.025301 
   290a -> 311a  :     0.026303 
   291a -> 308a  :     0.032556 
   292a -> 309a  :     0.017989 
   293a -> 308a  :     0.055076 
   294a -> 309a  :     0.058445 
   295a -> 310a  :     0.145012 
   295a -> 312a  :     0.011858 
   296a -> 307a  :     0.163587 
   296a -> 311a  :     0.015467 
   297a -> 307a  :     0.013111 
   297a -> 318a  :     0.011606 
   298a -> 310a  :     0.010944 
   298a -> 319a  :     0.011118 
   299a -> 308a  :     0.023883 
   299a -> 317a  :     0.013198 
   300a -> 309a  :     0.012632 
   301a -> 313a  :     0.026143 
   304a -> 309a  :     0.081555 
   304a -> 320a  :     0.037440 
   306a -> 312a  :     0.013410 

STATE 37:  E=   0.173826 au      4.730 eV    38150.4 cm**-1
   287a -> 309a  :     0.030117 
   288a -> 308a  :     0.034444 
   289a -> 307a  :     0.032526 
   289a -> 311a  :     0.030349 
   290a -> 310a  :     0.035655 
   290a -> 312a  :     0.029931 
   291a -> 309a  :     0.042764 
   292a -> 308a  :     0.028527 
   293a -> 309a  :     0.096085 
   294a -> 308a  :     0.116279 
   295a -> 307a  :     0.034515 
   296a -> 310a  :     0.031175 
   297a -> 310a  :     0.018347 
   297a -> 319a  :     0.022441 
   298a -> 307a  :     0.017977 
   298a -> 318a  :     0.022307 
   299a -> 309a  :     0.033946 
   299a -> 316a  :     0.016605 
   300a -> 308a  :     0.013370 
   300a -> 317a  :     0.012423 
   301a -> 309a  :     0.014883 
   304a -> 308a  :     0.059858 
   305a -> 312a  :     0.019634 
   306a -> 311a  :     0.020038 

STATE 38:  E=   0.174562 au      4.750 eV    38312.0 cm**-1
   287a -> 308a  :     0.024326 
   288a -> 309a  :     0.023224 
   289a -> 310a  :     0.028119 
   289a -> 312a  :     0.016442 
   290a -> 307a  :     0.028102 
   290a -> 311a  :     0.016327 
   291a -> 308a  :     0.030150 
   292a -> 309a  :     0.021473 
   293a -> 308a  :     0.074690 
   294a -> 309a  :     0.092961 
   297a -> 307a  :     0.038799 
   297a -> 318a  :     0.013884 
   298a -> 310a  :     0.037539 
   298a -> 319a  :     0.014148 
   299a -> 308a  :     0.056527 
   300a -> 309a  :     0.026265 
   301a -> 308a  :     0.012132 
   303a -> 308a  :     0.024072 
   304a -> 309a  :     0.096532 
   305a -> 311a  :     0.041193 
   305a -> 318a  :     0.028052 
   306a -> 312a  :     0.049163 
   306a -> 319a  :     0.022098 

STATE 39:  E=   0.175999 au      4.789 eV    38627.3 cm**-1
   283a -> 307a  :     0.017132 
   284a -> 310a  :     0.015866 
   287a -> 309a  :     0.017281 
   288a -> 308a  :     0.019686 
   289a -> 307a  :     0.077149 
   290a -> 310a  :     0.074501 
   293a -> 309a  :     0.012278 
   294a -> 308a  :     0.019884 
   295a -> 311a  :     0.014604 
   296a -> 312a  :     0.011597 
   297a -> 310a  :     0.036606 
   298a -> 307a  :     0.036924 
   299a -> 309a  :     0.042360 
   299a -> 316a  :     0.028817 
   300a -> 308a  :     0.019698 
   300a -> 317a  :     0.023058 
   301a -> 309a  :     0.015839 
   302a -> 308a  :     0.053247 
   303a -> 309a  :     0.024780 
   305a -> 312a  :     0.019373 
   305a -> 319a  :     0.109538 
   306a -> 311a  :     0.042549 
   306a -> 318a  :     0.111225 

STATE 40:  E=   0.176011 au      4.789 eV    38629.9 cm**-1
   283a -> 308a  :     0.032009 
   284a -> 309a  :     0.032644 
   287a -> 310a  :     0.031676 
   288a -> 307a  :     0.032596 
   289a -> 308a  :     0.081352 
   290a -> 309a  :     0.078187 
   293a -> 312a  :     0.019132 
   294a -> 311a  :     0.020909 
   295a -> 308a  :     0.010172 
   297a -> 314a  :     0.022374 
   298a -> 315a  :     0.022629 
   301a -> 319a  :     0.014620 
   302a -> 307a  :     0.028831 
   302a -> 318a  :     0.013334 
   303a -> 310a  :     0.031631 
   304a -> 307a  :     0.017599 
   305a -> 316a  :     0.026265 
   305a -> 320a  :     0.108384 
   306a -> 313a  :     0.036570 
   306a -> 317a  :     0.155526 


-------------------------
TD-DFT-EXCITATION SPECTRA
-------------------------

Center of mass = (  0.0000,  0.0000, -0.0190)
Calculating the Dipole integrals                  ... done
Transforming integrals                            ... done
Calculating the Linear Momentum integrals         ... done
Transforming integrals                            ... done
Calculating angular momentum integrals            ... done
Transforming integrals                            ... done

-----------------------------------------------------------------------------
         ABSORPTION SPECTRUM VIA TRANSITION ELECTRIC DIPOLE MOMENTS
-----------------------------------------------------------------------------
State   Energy    Wavelength  fosc         T2        TX        TY        TZ  
        (cm-1)      (nm)                 (au**2)    (au)      (au)      (au) 
-----------------------------------------------------------------------------
   1   14035.2    712.5   1.054278017  24.72934   0.00015   4.97286   0.00001
   2   14499.8    689.7   0.000000004   0.00000  -0.00028   0.00009  -0.00011
   3   14682.0    681.1   0.913707013  20.48783   4.52635  -0.00017   0.00008
   4   14855.3    673.2   0.192984624   4.27677  -0.00015  -0.00006   2.06804
   5   30640.1    326.4   0.017274183   0.18560   0.00003  -0.43082  -0.00024
   6   30659.9    326.2   0.000166216   0.00178  -0.00005   0.00257  -0.04217
   7   30896.6    323.7   0.000000044   0.00000   0.00069  -0.00002  -0.00001
   8   30897.9    323.6   0.000015398   0.00016   0.01281  -0.00003   0.00000
   9   30917.8    323.4   0.000000461   0.00000   0.00004   0.00182   0.00126
  10   30918.2    323.4   0.000005359   0.00006   0.00003  -0.00040   0.00754
  11   31192.2    320.6   0.000000236   0.00000  -0.00158   0.00000  -0.00001
  12   31192.7    320.6   0.000005847   0.00006  -0.00786  -0.00001  -0.00003
  13   32048.5    312.0   0.000000006   0.00000   0.00019   0.00016  -0.00004
  14   32528.0    307.4   0.000169634   0.00172   0.04143  -0.00030   0.00000
  15   32807.2    304.8   0.149058571   1.49576  -0.00002   1.22301   0.00005
  16   33147.2    301.7   0.002756124   0.02737   0.00001   0.00005  -0.16545
  17   33686.6    296.9   0.000000034   0.00000  -0.00024  -0.00050   0.00017
  18   33693.7    296.8   0.000982983   0.00960  -0.09800  -0.00068   0.00008
  19   34006.3    294.1   0.948585001   9.18316   0.00006  -3.03037  -0.00057
  20   34131.5    293.0   0.000000603   0.00001  -0.00238  -0.00038   0.00009
  21   34154.3    292.8   0.106387394   1.02546  -1.01265   0.00027  -0.00003
  22   34288.5    291.6   0.059309908   0.56945   0.00003   0.00169  -0.75462
  23   35204.0    284.1   1.543029213  14.42972  -0.00020  -3.79865   0.00002
  24   35292.0    283.4   0.000000576   0.00001   0.00223   0.00062  -0.00003
  25   35400.1    282.5   0.170773885   1.58815   1.26022   0.00018  -0.00006
  26   35409.7    282.4   0.000000010   0.00000   0.00025  -0.00010  -0.00012
  27   35512.7    281.6   1.826086809  16.92830  -4.11440   0.00016   0.00018
  28   35779.9    279.5   0.397339426   3.65593  -0.00042   0.00011  -1.91205
  29   36377.5    274.9   0.000000038   0.00000  -0.00023  -0.00018  -0.00051
  30   36377.9    274.9   0.000069641   0.00063  -0.02510  -0.00056  -0.00020
  31   36395.4    274.8   0.000000455   0.00000   0.00072  -0.00186   0.00037
  32   36396.2    274.8   0.000029092   0.00026   0.00033   0.00021   0.01622
  33   36516.8    273.8   0.000000005   0.00000  -0.00017   0.00004  -0.00011
  34   36541.4    273.7   0.002519517   0.02270   0.15066  -0.00008   0.00004
  35   37348.6    267.7   0.046586742   0.41064   0.00010   0.64081  -0.00004
  36   37705.2    265.2   0.006682249   0.05834   0.00010   0.00023  -0.24155
  37   38150.4    262.1   0.039281788   0.33897  -0.00006  -0.58222   0.00010
  38   38312.0    261.0   0.013172739   0.11319  -0.00004  -0.00002   0.33644
  39   38627.3    258.9   0.025379257   0.21630  -0.00033  -0.46508   0.00010
  40   38629.9    258.9   0.000002482   0.00002  -0.00121  -0.00444  -0.00005

-----------------------------------------------------------------------------
         ABSORPTION SPECTRUM VIA TRANSITION VELOCITY DIPOLE MOMENTS
-----------------------------------------------------------------------------
State   Energy    Wavelength   fosc        P2         PX        PY        PZ  
        (cm-1)      (nm)                 (au**2)     (au)      (au)      (au) 
-----------------------------------------------------------------------------
   1   14035.2    712.5   1.059843573   0.10166  -0.00002  -0.31885  -0.00000
   2   14499.8    689.7   0.000000003   0.00000   0.00002  -0.00000   0.00001
   3   14682.0    681.1   0.919264781   0.09224  -0.30372   0.00001  -0.00000
   4   14855.3    673.2   0.193892253   0.01969   0.00001   0.00000  -0.14031
   5   30640.1    326.4   0.017069093   0.00357   0.00001   0.05979   0.00003
   6   30659.9    326.2   0.000166544   0.00003   0.00001  -0.00035   0.00590
   7   30896.6    323.7   0.000000051   0.00000  -0.00010   0.00000   0.00000
   8   30897.9    323.6   0.000017564   0.00000  -0.00193   0.00000  -0.00000
   9   30917.8    323.4   0.000000846   0.00000  -0.00001  -0.00039  -0.00017
  10   30918.2    323.4   0.000005122   0.00000  -0.00001   0.00008  -0.00104
  11   31192.2    320.6   0.000000219   0.00000   0.00022  -0.00001  -0.00000
  12   31192.7    320.6   0.000005411   0.00000   0.00107   0.00000   0.00001
  13   32048.5    312.0   0.000000005   0.00000  -0.00002  -0.00002   0.00000
  14   32528.0    307.4   0.000205361   0.00005  -0.00676   0.00005   0.00000
  15   32807.2    304.8   0.147068843   0.03298  -0.00000  -0.18159  -0.00001
  16   33147.2    301.7   0.002755491   0.00062   0.00000  -0.00001   0.02498
  17   33686.6    296.9   0.000000032   0.00000   0.00003   0.00008  -0.00002
  18   33693.7    296.8   0.000917541   0.00021   0.01454   0.00010  -0.00001
  19   34006.3    294.1   0.937318726   0.21785  -0.00001   0.46674   0.00009
  20   34131.5    293.0   0.000000585   0.00000   0.00037   0.00005  -0.00001
  21   34154.3    292.8   0.103869559   0.02425   0.15571  -0.00004   0.00000
  22   34288.5    291.6   0.058015455   0.01360  -0.00000  -0.00026   0.11660
  23   35204.0    284.1   1.532897787   0.36882   0.00004   0.60730  -0.00000
  24   35292.0    283.4   0.000000567   0.00000  -0.00036  -0.00009   0.00001
  25   35400.1    282.5   0.167865138   0.04061  -0.20153  -0.00002   0.00001
  26   35409.7    282.4   0.000000007   0.00000  -0.00004   0.00001   0.00000
  27   35512.7    281.6   1.812872291   0.44001   0.66333  -0.00002  -0.00003
  28   35779.9    279.5   0.394338467   0.09643   0.00007  -0.00001   0.31053
  29   36377.5    274.9   0.000000034   0.00000   0.00004   0.00003   0.00008
  30   36377.9    274.9   0.000071632   0.00002   0.00422   0.00008   0.00003
  31   36395.4    274.8   0.000000417   0.00000  -0.00011   0.00030  -0.00006
  32   36396.2    274.8   0.000028286   0.00001  -0.00005  -0.00003  -0.00265
  33   36516.8    273.8   0.000000005   0.00000   0.00003  -0.00000   0.00002
  34   36541.4    273.7   0.002737855   0.00068  -0.02615   0.00001  -0.00001
  35   37348.6    267.7   0.047109524   0.01203  -0.00002  -0.10966   0.00001
  36   37705.2    265.2   0.006718901   0.00173  -0.00001  -0.00004   0.04161
  37   38150.4    262.1   0.039361926   0.01026   0.00001   0.10131  -0.00001
  38   38312.0    261.0   0.013328403   0.00349   0.00000  -0.00000  -0.05908
  39   38627.3    258.9   0.026008204   0.00687   0.00004   0.08286  -0.00001
  40   38629.9    258.9   0.000002559   0.00000   0.00021   0.00079   0.00001

-------------------------------------------------------------------
                             CD SPECTRUM
-------------------------------------------------------------------
State  Energy     Wavelength     R         MX        MY        MZ   
       (cm-1)       (nm)     (1e40*cgs)   (au)      (au)      (au)  
-------------------------------------------------------------------
   1   14035.2    712.5      0.02913  -1.03791   0.00004   0.00001
   2   14499.8    689.7      0.11520  -0.00002  -0.00000  -2.12873
   3   14682.0    681.1      0.09404   0.00004  -0.07015  -0.00013
   4   14855.3    673.2     -0.04097  -0.00000  -0.00000  -0.00004
   5   30640.1    326.4      0.00844   0.20160  -0.00003  -0.00003
   6   30659.9    326.2      0.00094  -0.00121  -0.00009  -0.00005
   7   30896.6    323.7     -0.00067  -0.00036  -0.01258   0.11268
   8   30897.9    323.6      0.00390   0.00006  -0.25438  -0.00561
   9   30917.8    323.4      0.00569   0.27609  -0.00002   0.00007
  10   30918.2    323.4     -0.00071  -0.04472  -0.00036  -0.00003
  11   31192.2    320.6      0.00005  -0.00009  -0.00078   0.00801
  12   31192.7    320.6     -0.00020   0.00007  -0.00398  -0.00159
  13   32048.5    312.0      0.00868  -0.00012   0.00014  -0.47578
  14   32528.0    307.4     -0.06071   0.00013   0.44069   0.00035
  15   32807.2    304.8      0.03878  -0.61087   0.00006   0.00009
  16   33147.2    301.7      0.00906  -0.00004   0.00001  -0.00012
  17   33686.6    296.9     -0.07553   0.00024  -0.00101  -0.92916
  18   33693.7    296.8      0.14187   0.00031  -0.48941   0.00195
  19   34006.3    294.1     -0.13425   1.51849   0.00012   0.00007
  20   34131.5    293.0      0.03063   0.00017  -0.00032   0.75768
  21   34154.3    292.8      0.07095  -0.00019  -0.14519  -0.00158
  22   34288.5    291.6     -0.05325  -0.00083  -0.00001   0.00015
  23   35204.0    284.1     -0.26928   1.98523   0.00004   0.00080
  24   35292.0    283.4     -0.06228  -0.00027  -0.00008   4.74238
  25   35400.1    282.5     -0.05235  -0.00011   0.15841   0.00065
  26   35409.7    282.4      0.09650   0.00005   0.00025  -1.67000
  27   35512.7    281.6      0.38899  -0.00019   0.26363   0.00266
  28   35779.9    279.5     -0.07447  -0.00008   0.00007   0.00008
  29   36377.5    274.9      0.05257  -0.00028  -0.00421  -0.21898
  30   36377.9    274.9      0.10997  -0.00006  -0.41755   0.00220
  31   36395.4    274.8     -0.15768  -0.46516   0.00029   0.00053
  32   36396.2    274.8      0.00685   0.00622   0.00031   0.00077
  33   36516.8    273.8     -0.01147  -0.00019  -0.00005   0.21386
  34   36541.4    273.7      0.00278   0.00004   0.00700   0.00029
  35   37348.6    267.7     -0.03274  -0.36454  -0.00005  -0.00011
  36   37705.2    265.2      0.01368  -0.00015   0.00004  -0.00012
  37   38150.4    262.1     -0.00372   0.34441  -0.00002   0.00003
  38   38312.0    261.0      0.01984   0.00004  -0.00002   0.00013
  39   38627.3    258.9     -0.04047   0.26091  -0.00000  -0.00797
  40   38629.9    258.9     -0.01941   0.00252   0.00011   0.81910

Total run time:    39518.171 sec

           *** ORCA-CIS/TD-DFT FINISHED WITHOUT ERROR ***

-----------------------
CIS/TD-DFT TOTAL ENERGY
-----------------------

    E(SCF)  =  -7037.980847596 Eh
    DE(CIS) =      0.063949009 Eh (Root  1)
    ----------------------------- ---------
    E(tot)  =  -7037.916898587 Eh


-------------------------   --------------------
FINAL SINGLE POINT ENERGY     -7037.916898587379
-------------------------   --------------------


                            ***************************************
                            *     ORCA property calculations      *
                            ***************************************

                                    ---------------------
                                    Active property flags
                                    ---------------------
   (+) Dipole Moment


------------------------------------------------------------------------------
                       ORCA ELECTRIC PROPERTIES CALCULATION
------------------------------------------------------------------------------

Dipole Moment Calculation                       ... on
Quadrupole Moment Calculation                   ... off
Polarizability Calculation                      ... off
GBWName                                         ... /media/sergey/f823ebf4-a37f-4464-97a4-90311f85c47f1/makar/orca/ZnPc-gable/ZnPc-gable.gbw
Electron density file                           ... /media/sergey/f823ebf4-a37f-4464-97a4-90311f85c47f1/makar/orca/ZnPc-gable/ZnPc-gable.scfp
The origin for moment calculation is the CENTER OF MASS  = ( 0.000000,  0.000000 -0.018983)

-------------
DIPOLE MOMENT
-------------
                                X             Y             Z
Electronic contribution:      0.00000       0.00008     -11.27457
Nuclear contribution   :     -0.00000       0.00000      11.65564
                        -----------------------------------------
Total Dipole Moment    :      0.00000       0.00008       0.38107
                        -----------------------------------------
Magnitude (a.u.)       :      0.38107
Magnitude (Debye)      :      0.96860



--------------------
Rotational spectrum 
--------------------
 
Rotational constants in cm-1:     0.001139     0.000242     0.000217 
Rotational constants in MHz :    34.132876     7.266879     6.518840 

 Dipole components along the rotational axes: 
x,y,z [a.u.] :     0.000083    -0.000000     0.381067 
x,y,z [Debye]:     0.000211    -0.000001     0.968595 

 

Timings for individual modules:

Sum of individual times         ...    39804.026 sec (= 663.400 min)
GTO integral calculation        ...        7.873 sec (=   0.131 min)   0.0 %
SCF iterations                  ...      275.641 sec (=   4.594 min)   0.7 %
CIS module                      ...    39520.511 sec (= 658.675 min)  99.3 %
                             ****ORCA TERMINATED NORMALLY****
TOTAL RUN TIME: 0 days 11 hours 3 minutes 28 seconds 137 msec
