 Entering Gaussian System, Link 0=g09
 Input=ZnPc2_33.gjf
 Output=ZnPc2_33.log
 Initial command:
 /opt/g09/l1.exe "/home/sergey/scratch/Gau-20021.inp" -scrdir="/home/sergey/scratch/"
 Entering Link 1 = /opt/g09/l1.exe PID=     20023.
  
 Copyright (c) 1988,1990,1992,1993,1995,1998,2003,2009,2015,
            Gaussian, Inc.  All Rights Reserved.
  
 This is part of the Gaussian(R) 09 program.  It is based on
 the Gaussian(R) 03 system (copyright 2003, Gaussian, Inc.),
 the Gaussian(R) 98 system (copyright 1998, Gaussian, Inc.),
 the Gaussian(R) 94 system (copyright 1995, Gaussian, Inc.),
 the Gaussian 92(TM) system (copyright 1992, Gaussian, Inc.),
 the Gaussian 90(TM) system (copyright 1990, Gaussian, Inc.),
 the Gaussian 88(TM) system (copyright 1988, Gaussian, Inc.),
 the Gaussian 86(TM) system (copyright 1986, Carnegie Mellon
 University), and the Gaussian 82(TM) system (copyright 1983,
 Carnegie Mellon University). Gaussian is a federally registered
 trademark of Gaussian, Inc.
  
 This software contains proprietary and confidential information,
 including trade secrets, belonging to Gaussian, Inc.
  
 This software is provided under written license and may be
 used, copied, transmitted, or stored only in accord with that
 written license.
  
 The following legend is applicable only to US Government
 contracts under FAR:
  
                    RESTRICTED RIGHTS LEGEND
  
 Use, reproduction and disclosure by the US Government is
 subject to restrictions as set forth in subparagraphs (a)
 and (c) of the Commercial Computer Software - Restricted
 Rights clause in FAR 52.227-19.
  
 Gaussian, Inc.
 340 Quinnipiac St., Bldg. 40, Wallingford CT 06492
  
  
 ---------------------------------------------------------------
 Warning -- This program may not be used in any manner that
 competes with the business of Gaussian, Inc. or will provide
 assistance to any competitor of Gaussian, Inc.  The licensee
 of this program is prohibited from giving any competitor of
 Gaussian, Inc. access to this program.  By using this program,
 the user acknowledges that Gaussian, Inc. is engaged in the
 business of creating and licensing software in the field of
 computational chemistry and represents and warrants to the
 licensee that it is not a competitor of Gaussian, Inc. and that
 it will not use this program in any manner prohibited above.
 ---------------------------------------------------------------
  

 Cite this work as:
 Gaussian 09, Revision E.01,
 M. J. Frisch, G. W. Trucks, H. B. Schlegel, G. E. Scuseria, 
 M. A. Robb, J. R. Cheeseman, G. Scalmani, V. Barone, B. Mennucci, 
 G. A. Petersson, H. Nakatsuji, M. Caricato, X. Li, H. P. Hratchian, 
 A. F. Izmaylov, J. Bloino, G. Zheng, J. L. Sonnenberg, M. Hada, 
 M. Ehara, K. Toyota, R. Fukuda, J. Hasegawa, M. Ishida, T. Nakajima, 
 Y. Honda, O. Kitao, H. Nakai, T. Vreven, J. A. Montgomery, Jr., 
 J. E. Peralta, F. Ogliaro, M. Bearpark, J. J. Heyd, E. Brothers, 
 K. N. Kudin, V. N. Staroverov, T. Keith, R. Kobayashi, J. Normand, 
 K. Raghavachari, A. Rendell, J. C. Burant, S. S. Iyengar, J. Tomasi, 
 M. Cossi, N. Rega, J. M. Millam, M. Klene, J. E. Knox, J. B. Cross, 
 V. Bakken, C. Adamo, J. Jaramillo, R. Gomperts, R. E. Stratmann, 
 O. Yazyev, A. J. Austin, R. Cammi, C. Pomelli, J. W. Ochterski, 
 R. L. Martin, K. Morokuma, V. G. Zakrzewski, G. A. Voth, 
 P. Salvador, J. J. Dannenberg, S. Dapprich, A. D. Daniels, 
 O. Farkas, J. B. Foresman, J. V. Ortiz, J. Cioslowski, 
 and D. J. Fox, Gaussian, Inc., Wallingford CT, 2013.
 
 ******************************************
 Gaussian 09:  ES64L-G09RevE.01 30-Nov-2015
                18-Dec-2024 
 ******************************************
 %chk=ZnPc2_33.chk
 %nprocshared=8
 Will use up to    8 processors via shared memory.
 %mem=16GB
 Default route:  MaxDisk=100GW
 ----------------------------------------------------------
 #p lc-blyp/def2svp iop(3/107=0400000000, 3/108=0400000000)
 ----------------------------------------------------------
 1/38=1/1;
 2/12=2,17=6,18=5,40=1/2;
 3/5=43,7=101,11=2,16=1,25=1,30=1,74=1000402,107=400000000,108=400000000/1,2,3;
 4//1;
 5/5=2,38=5/2;
 6/7=2,8=2,9=2,10=2,28=1/1;
 99/5=1,9=1/99;
 Leave Link    1 at Wed Dec 18 17:00:07 2024, MaxMem=  2147483648 cpu:         0.1
 (Enter /opt/g09/l101.exe)
 -----------------------------------
 ZnPc dimer, monomer geom b3pw/631dp
 -----------------------------------
 Symbolic Z-matrix:
 Charge =  0 Multiplicity = 1
 C                     0.70283   6.55507   0. 
 C                    -0.70283   6.55507   0. 
 C                     1.42386   5.36476   0. 
 C                     0.70356   4.17204   0. 
 C                    -0.70356   4.17204   0. 
 C                    -1.42386   5.36476   0. 
 C                     1.11636   2.77432   0. 
 C                    -1.11636   2.77432   0. 
 N                     0.        1.98232   0. 
 N                    -2.38508   2.38508   0. 
 N                     2.38508   2.38508   0. 
 H                     1.23253   7.5037    0. 
 H                    -1.23253   7.5037    0. 
 H                     2.50917   5.35529   0. 
 H                    -2.50917   5.35529   0. 
 C                     6.55507  -0.70283   0. 
 C                     6.55507   0.70283   0. 
 C                     5.36476  -1.42386   0. 
 C                     4.17204  -0.70356   0. 
 C                     4.17204   0.70356   0. 
 C                     5.36476   1.42386   0. 
 C                     2.77432  -1.11636   0. 
 C                     2.77432   1.11636   0. 
 N                     1.98232   0.        0. 
 N                     2.38508  -2.38508   0. 
 H                     7.5037   -1.23253   0. 
 H                     7.5037    1.23253   0. 
 H                     5.35529  -2.50917   0. 
 H                     5.35529   2.50917   0. 
 C                    -6.55507   0.70283   0. 
 C                    -6.55507  -0.70283   0. 
 C                    -5.36476   1.42386   0. 
 C                    -4.17204   0.70356   0. 
 C                    -4.17204  -0.70356   0. 
 C                    -5.36476  -1.42386   0. 
 C                    -2.77432   1.11636   0. 
 C                    -2.77432  -1.11636   0. 
 N                    -1.98232   0.        0. 
 N                    -2.38508  -2.38508   0. 
 H                    -7.5037    1.23253   0. 
 H                    -7.5037   -1.23253   0. 
 H                    -5.35529   2.50917   0. 
 H                    -5.35529  -2.50917   0. 
 C                    -0.70283  -6.55507   0. 
 C                     0.70283  -6.55507   0. 
 C                    -1.42386  -5.36476   0. 
 C                    -0.70356  -4.17204   0. 
 C                     0.70356  -4.17204   0. 
 C                     1.42386  -5.36476   0. 
 C                    -1.11636  -2.77432   0. 
 C                     1.11636  -2.77432   0. 
 N                     0.       -1.98232   0. 
 H                    -1.23253  -7.5037    0. 
 H                     1.23253  -7.5037    0. 
 H                    -2.50917  -5.35529   0. 
 H                     2.50917  -5.35529   0. 
 Zn                    0.        0.        0. 
 C                     0.70283   6.55507   3.3 
 C                    -0.70283   6.55507   3.3 
 C                     1.42386   5.36476   3.3 
 C                     0.70356   4.17204   3.3 
 C                    -0.70356   4.17204   3.3 
 C                    -1.42386   5.36476   3.3 
 C                     1.11636   2.77432   3.3 
 C                    -1.11636   2.77432   3.3 
 N                     0.        1.98232   3.3 
 N                    -2.38508   2.38508   3.3 
 N                     2.38508   2.38508   3.3 
 H                     1.23253   7.5037    3.3 
 H                    -1.23253   7.5037    3.3 
 H                     2.50917   5.35529   3.3 
 H                    -2.50917   5.35529   3.3 
 C                     6.55507  -0.70283   3.3 
 C                     6.55507   0.70283   3.3 
 C                     5.36476  -1.42386   3.3 
 C                     4.17204  -0.70356   3.3 
 C                     4.17204   0.70356   3.3 
 C                     5.36476   1.42386   3.3 
 C                     2.77432  -1.11636   3.3 
 C                     2.77432   1.11636   3.3 
 N                     1.98232   0.        3.3 
 N                     2.38508  -2.38508   3.3 
 H                     7.5037   -1.23253   3.3 
 H                     7.5037    1.23253   3.3 
 H                     5.35529  -2.50917   3.3 
 H                     5.35529   2.50917   3.3 
 C                    -6.55507   0.70283   3.3 
 C                    -6.55507  -0.70283   3.3 
 C                    -5.36476   1.42386   3.3 
 C                    -4.17204   0.70356   3.3 
 C                    -4.17204  -0.70356   3.3 
 C                    -5.36476  -1.42386   3.3 
 C                    -2.77432   1.11636   3.3 
 C                    -2.77432  -1.11636   3.3 
 N                    -1.98232   0.        3.3 
 N                    -2.38508  -2.38508   3.3 
 H                    -7.5037    1.23253   3.3 
 H                    -7.5037   -1.23253   3.3 
 H                    -5.35529   2.50917   3.3 
 H                    -5.35529  -2.50917   3.3 
 C                    -0.70283  -6.55507   3.3 
 C                     0.70283  -6.55507   3.3 
 C                    -1.42386  -5.36476   3.3 
 C                    -0.70356  -4.17204   3.3 
 C                     0.70356  -4.17204   3.3 
 C                     1.42386  -5.36476   3.3 
 C                    -1.11636  -2.77432   3.3 
 C                     1.11636  -2.77432   3.3 
 N                     0.       -1.98232   3.3 
 H                    -1.23253  -7.5037    3.3 
 H                     1.23253  -7.5037    3.3 
 H                    -2.50917  -5.35529   3.3 
 H                     2.50917  -5.35529   3.3 
 Zn                    0.        0.        3.3 
 
 NAtoms=    114 NQM=      114 NQMF=       0 NMMI=      0 NMMIF=      0
                NMic=       0 NMicF=      0.
                    Isotopes and Nuclear Properties:
 (Nuclear quadrupole moments (NQMom) in fm**2, nuclear magnetic moments (NMagM)
  in nuclear magnetons)

  Atom         1           2           3           4           5           6           7           8           9          10
 IAtWgt=          12          12          12          12          12          12          12          12          14          14
 AtmWgt=  12.0000000  12.0000000  12.0000000  12.0000000  12.0000000  12.0000000  12.0000000  12.0000000  14.0030740  14.0030740
 NucSpn=           0           0           0           0           0           0           0           0           2           2
 AtZEff=   0.0000000   0.0000000   0.0000000   0.0000000   0.0000000   0.0000000   0.0000000   0.0000000   0.0000000   0.0000000
 NQMom=    0.0000000   0.0000000   0.0000000   0.0000000   0.0000000   0.0000000   0.0000000   0.0000000   2.0440000   2.0440000
 NMagM=    0.0000000   0.0000000   0.0000000   0.0000000   0.0000000   0.0000000   0.0000000   0.0000000   0.4037610   0.4037610
 AtZNuc=   6.0000000   6.0000000   6.0000000   6.0000000   6.0000000   6.0000000   6.0000000   6.0000000   7.0000000   7.0000000

  Atom        11          12          13          14          15          16          17          18          19          20
 IAtWgt=          14           1           1           1           1          12          12          12          12          12
 AtmWgt=  14.0030740   1.0078250   1.0078250   1.0078250   1.0078250  12.0000000  12.0000000  12.0000000  12.0000000  12.0000000
 NucSpn=           2           1           1           1           1           0           0           0           0           0
 AtZEff=   0.0000000   0.0000000   0.0000000   0.0000000   0.0000000   0.0000000   0.0000000   0.0000000   0.0000000   0.0000000
 NQMom=    2.0440000   0.0000000   0.0000000   0.0000000   0.0000000   0.0000000   0.0000000   0.0000000   0.0000000   0.0000000
 NMagM=    0.4037610   2.7928460   2.7928460   2.7928460   2.7928460   0.0000000   0.0000000   0.0000000   0.0000000   0.0000000
 AtZNuc=   7.0000000   1.0000000   1.0000000   1.0000000   1.0000000   6.0000000   6.0000000   6.0000000   6.0000000   6.0000000

  Atom        21          22          23          24          25          26          27          28          29          30
 IAtWgt=          12          12          12          14          14           1           1           1           1          12
 AtmWgt=  12.0000000  12.0000000  12.0000000  14.0030740  14.0030740   1.0078250   1.0078250   1.0078250   1.0078250  12.0000000
 NucSpn=           0           0           0           2           2           1           1           1           1           0
 AtZEff=   0.0000000   0.0000000   0.0000000   0.0000000   0.0000000   0.0000000   0.0000000   0.0000000   0.0000000   0.0000000
 NQMom=    0.0000000   0.0000000   0.0000000   2.0440000   2.0440000   0.0000000   0.0000000   0.0000000   0.0000000   0.0000000
 NMagM=    0.0000000   0.0000000   0.0000000   0.4037610   0.4037610   2.7928460   2.7928460   2.7928460   2.7928460   0.0000000
 AtZNuc=   6.0000000   6.0000000   6.0000000   7.0000000   7.0000000   1.0000000   1.0000000   1.0000000   1.0000000   6.0000000

  Atom        31          32          33          34          35          36          37          38          39          40
 IAtWgt=          12          12          12          12          12          12          12          14          14           1
 AtmWgt=  12.0000000  12.0000000  12.0000000  12.0000000  12.0000000  12.0000000  12.0000000  14.0030740  14.0030740   1.0078250
 NucSpn=           0           0           0           0           0           0           0           2           2           1
 AtZEff=   0.0000000   0.0000000   0.0000000   0.0000000   0.0000000   0.0000000   0.0000000   0.0000000   0.0000000   0.0000000
 NQMom=    0.0000000   0.0000000   0.0000000   0.0000000   0.0000000   0.0000000   0.0000000   2.0440000   2.0440000   0.0000000
 NMagM=    0.0000000   0.0000000   0.0000000   0.0000000   0.0000000   0.0000000   0.0000000   0.4037610   0.4037610   2.7928460
 AtZNuc=   6.0000000   6.0000000   6.0000000   6.0000000   6.0000000   6.0000000   6.0000000   7.0000000   7.0000000   1.0000000

  Atom        41          42          43          44          45          46          47          48          49          50
 IAtWgt=           1           1           1          12          12          12          12          12          12          12
 AtmWgt=   1.0078250   1.0078250   1.0078250  12.0000000  12.0000000  12.0000000  12.0000000  12.0000000  12.0000000  12.0000000
 NucSpn=           1           1           1           0           0           0           0           0           0           0
 AtZEff=   0.0000000   0.0000000   0.0000000   0.0000000   0.0000000   0.0000000   0.0000000   0.0000000   0.0000000   0.0000000
 NQMom=    0.0000000   0.0000000   0.0000000   0.0000000   0.0000000   0.0000000   0.0000000   0.0000000   0.0000000   0.0000000
 NMagM=    2.7928460   2.7928460   2.7928460   0.0000000   0.0000000   0.0000000   0.0000000   0.0000000   0.0000000   0.0000000
 AtZNuc=   1.0000000   1.0000000   1.0000000   6.0000000   6.0000000   6.0000000   6.0000000   6.0000000   6.0000000   6.0000000

  Atom        51          52          53          54          55          56          57          58          59          60
 IAtWgt=          12          14           1           1           1           1          64          12          12          12
 AtmWgt=  12.0000000  14.0030740   1.0078250   1.0078250   1.0078250   1.0078250  63.9291454  12.0000000  12.0000000  12.0000000
 NucSpn=           0           2           1           1           1           1           0           0           0           0
 AtZEff=   0.0000000   0.0000000   0.0000000   0.0000000   0.0000000   0.0000000   0.0000000   0.0000000   0.0000000   0.0000000
 NQMom=    0.0000000   2.0440000   0.0000000   0.0000000   0.0000000   0.0000000   0.0000000   0.0000000   0.0000000   0.0000000
 NMagM=    0.0000000   0.4037610   2.7928460   2.7928460   2.7928460   2.7928460   0.0000000   0.0000000   0.0000000   0.0000000
 AtZNuc=   6.0000000   7.0000000   1.0000000   1.0000000   1.0000000   1.0000000  30.0000000   6.0000000   6.0000000   6.0000000

  Atom        61          62          63          64          65          66          67          68          69          70
 IAtWgt=          12          12          12          12          12          14          14          14           1           1
 AtmWgt=  12.0000000  12.0000000  12.0000000  12.0000000  12.0000000  14.0030740  14.0030740  14.0030740   1.0078250   1.0078250
 NucSpn=           0           0           0           0           0           2           2           2           1           1
 AtZEff=   0.0000000   0.0000000   0.0000000   0.0000000   0.0000000   0.0000000   0.0000000   0.0000000   0.0000000   0.0000000
 NQMom=    0.0000000   0.0000000   0.0000000   0.0000000   0.0000000   2.0440000   2.0440000   2.0440000   0.0000000   0.0000000
 NMagM=    0.0000000   0.0000000   0.0000000   0.0000000   0.0000000   0.4037610   0.4037610   0.4037610   2.7928460   2.7928460
 AtZNuc=   6.0000000   6.0000000   6.0000000   6.0000000   6.0000000   7.0000000   7.0000000   7.0000000   1.0000000   1.0000000

  Atom        71          72          73          74          75          76          77          78          79          80
 IAtWgt=           1           1          12          12          12          12          12          12          12          12
 AtmWgt=   1.0078250   1.0078250  12.0000000  12.0000000  12.0000000  12.0000000  12.0000000  12.0000000  12.0000000  12.0000000
 NucSpn=           1           1           0           0           0           0           0           0           0           0
 AtZEff=   0.0000000   0.0000000   0.0000000   0.0000000   0.0000000   0.0000000   0.0000000   0.0000000   0.0000000   0.0000000
 NQMom=    0.0000000   0.0000000   0.0000000   0.0000000   0.0000000   0.0000000   0.0000000   0.0000000   0.0000000   0.0000000
 NMagM=    2.7928460   2.7928460   0.0000000   0.0000000   0.0000000   0.0000000   0.0000000   0.0000000   0.0000000   0.0000000
 AtZNuc=   1.0000000   1.0000000   6.0000000   6.0000000   6.0000000   6.0000000   6.0000000   6.0000000   6.0000000   6.0000000

  Atom        81          82          83          84          85          86          87          88          89          90
 IAtWgt=          14          14           1           1           1           1          12          12          12          12
 AtmWgt=  14.0030740  14.0030740   1.0078250   1.0078250   1.0078250   1.0078250  12.0000000  12.0000000  12.0000000  12.0000000
 NucSpn=           2           2           1           1           1           1           0           0           0           0
 AtZEff=   0.0000000   0.0000000   0.0000000   0.0000000   0.0000000   0.0000000   0.0000000   0.0000000   0.0000000   0.0000000
 NQMom=    2.0440000   2.0440000   0.0000000   0.0000000   0.0000000   0.0000000   0.0000000   0.0000000   0.0000000   0.0000000
 NMagM=    0.4037610   0.4037610   2.7928460   2.7928460   2.7928460   2.7928460   0.0000000   0.0000000   0.0000000   0.0000000
 AtZNuc=   7.0000000   7.0000000   1.0000000   1.0000000   1.0000000   1.0000000   6.0000000   6.0000000   6.0000000   6.0000000

  Atom        91          92          93          94          95          96          97          98          99         100
 IAtWgt=          12          12          12          12          14          14           1           1           1           1
 AtmWgt=  12.0000000  12.0000000  12.0000000  12.0000000  14.0030740  14.0030740   1.0078250   1.0078250   1.0078250   1.0078250
 NucSpn=           0           0           0           0           2           2           1           1           1           1
 AtZEff=   0.0000000   0.0000000   0.0000000   0.0000000   0.0000000   0.0000000   0.0000000   0.0000000   0.0000000   0.0000000
 NQMom=    0.0000000   0.0000000   0.0000000   0.0000000   2.0440000   2.0440000   0.0000000   0.0000000   0.0000000   0.0000000
 NMagM=    0.0000000   0.0000000   0.0000000   0.0000000   0.4037610   0.4037610   2.7928460   2.7928460   2.7928460   2.7928460
 AtZNuc=   6.0000000   6.0000000   6.0000000   6.0000000   7.0000000   7.0000000   1.0000000   1.0000000   1.0000000   1.0000000

  Atom       101         102         103         104         105         106         107         108         109         110
 IAtWgt=          12          12          12          12          12          12          12          12          14           1
 AtmWgt=  12.0000000  12.0000000  12.0000000  12.0000000  12.0000000  12.0000000  12.0000000  12.0000000  14.0030740   1.0078250
 NucSpn=           0           0           0           0           0           0           0           0           2           1
 AtZEff=   0.0000000   0.0000000   0.0000000   0.0000000   0.0000000   0.0000000   0.0000000   0.0000000   0.0000000   0.0000000
 NQMom=    0.0000000   0.0000000   0.0000000   0.0000000   0.0000000   0.0000000   0.0000000   0.0000000   2.0440000   0.0000000
 NMagM=    0.0000000   0.0000000   0.0000000   0.0000000   0.0000000   0.0000000   0.0000000   0.0000000   0.4037610   2.7928460
 AtZNuc=   6.0000000   6.0000000   6.0000000   6.0000000   6.0000000   6.0000000   6.0000000   6.0000000   7.0000000   1.0000000

  Atom       111         112         113         114
 IAtWgt=           1           1           1          64
 AtmWgt=   1.0078250   1.0078250   1.0078250  63.9291454
 NucSpn=           1           1           1           0
 AtZEff=   0.0000000   0.0000000   0.0000000   0.0000000
 NQMom=    0.0000000   0.0000000   0.0000000   0.0000000
 NMagM=    2.7928460   2.7928460   2.7928460   0.0000000
 AtZNuc=   1.0000000   1.0000000   1.0000000  30.0000000
 Leave Link  101 at Wed Dec 18 17:00:07 2024, MaxMem=  2147483648 cpu:         0.4
 (Enter /opt/g09/l202.exe)
 Stoichiometry    C64H32N16Zn2
 Framework group  D4H[C4(Zn.Zn),2SGV(N4),2SGD(N4),X(C64H32)]
 Deg. of freedom    23
 Full point group                 D4H     NOp  16
 Largest Abelian subgroup         D2H     NOp   8
 Largest concise Abelian subgroup D2H     NOp   8
                         Standard orientation:                         
 ---------------------------------------------------------------------
 Center     Atomic      Atomic             Coordinates (Angstroms)
 Number     Number       Type             X           Y           Z
 ---------------------------------------------------------------------
      1          6           0       -0.702825    6.555074    1.650000
      2          6           0        0.702825    6.555074    1.650000
      3          6           0       -1.423858    5.364764    1.650000
      4          6           0       -0.703557    4.172041    1.650000
      5          6           0        0.703557    4.172041    1.650000
      6          6           0        1.423858    5.364764    1.650000
      7          6           0       -1.116363    2.774321    1.650000
      8          6           0        1.116363    2.774321    1.650000
      9          7           0        0.000000    1.982317    1.650000
     10          7           0        2.385083    2.385083    1.650000
     11          7           0       -2.385083    2.385083    1.650000
     12          1           0       -1.232530    7.503704    1.650000
     13          1           0        1.232530    7.503704    1.650000
     14          1           0       -2.509174    5.355287    1.650000
     15          1           0        2.509174    5.355287    1.650000
     16          6           0       -6.555074   -0.702825    1.650000
     17          6           0       -6.555074    0.702825    1.650000
     18          6           0       -5.364764   -1.423858    1.650000
     19          6           0       -4.172041   -0.703557    1.650000
     20          6           0       -4.172041    0.703557    1.650000
     21          6           0       -5.364764    1.423858    1.650000
     22          6           0       -2.774321   -1.116363    1.650000
     23          6           0       -2.774321    1.116363    1.650000
     24          7           0       -1.982317    0.000000    1.650000
     25          7           0       -2.385083   -2.385083    1.650000
     26          1           0       -7.503704   -1.232530    1.650000
     27          1           0       -7.503704    1.232530    1.650000
     28          1           0       -5.355287   -2.509174    1.650000
     29          1           0       -5.355287    2.509174    1.650000
     30          6           0        6.555074    0.702825    1.650000
     31          6           0        6.555074   -0.702825    1.650000
     32          6           0        5.364764    1.423858    1.650000
     33          6           0        4.172041    0.703557    1.650000
     34          6           0        4.172041   -0.703557    1.650000
     35          6           0        5.364764   -1.423858    1.650000
     36          6           0        2.774321    1.116363    1.650000
     37          6           0        2.774321   -1.116363    1.650000
     38          7           0        1.982317   -0.000000    1.650000
     39          7           0        2.385083   -2.385083    1.650000
     40          1           0        7.503704    1.232530    1.650000
     41          1           0        7.503704   -1.232530    1.650000
     42          1           0        5.355287    2.509174    1.650000
     43          1           0        5.355287   -2.509174    1.650000
     44          6           0        0.702825   -6.555074    1.650000
     45          6           0       -0.702825   -6.555074    1.650000
     46          6           0        1.423858   -5.364764    1.650000
     47          6           0        0.703557   -4.172041    1.650000
     48          6           0       -0.703557   -4.172041    1.650000
     49          6           0       -1.423858   -5.364764    1.650000
     50          6           0        1.116363   -2.774321    1.650000
     51          6           0       -1.116363   -2.774321    1.650000
     52          7           0       -0.000000   -1.982317    1.650000
     53          1           0        1.232530   -7.503704    1.650000
     54          1           0       -1.232530   -7.503704    1.650000
     55          1           0        2.509174   -5.355287    1.650000
     56          1           0       -2.509174   -5.355287    1.650000
     57         30           0        0.000000    0.000000    1.650000
     58          6           0       -0.702825    6.555074   -1.650000
     59          6           0        0.702825    6.555074   -1.650000
     60          6           0       -1.423858    5.364764   -1.650000
     61          6           0       -0.703557    4.172041   -1.650000
     62          6           0        0.703557    4.172041   -1.650000
     63          6           0        1.423858    5.364764   -1.650000
     64          6           0       -1.116363    2.774321   -1.650000
     65          6           0        1.116363    2.774321   -1.650000
     66          7           0        0.000000    1.982317   -1.650000
     67          7           0        2.385083    2.385083   -1.650000
     68          7           0       -2.385083    2.385083   -1.650000
     69          1           0       -1.232530    7.503704   -1.650000
     70          1           0        1.232530    7.503704   -1.650000
     71          1           0       -2.509174    5.355287   -1.650000
     72          1           0        2.509174    5.355287   -1.650000
     73          6           0       -6.555074   -0.702825   -1.650000
     74          6           0       -6.555074    0.702825   -1.650000
     75          6           0       -5.364764   -1.423858   -1.650000
     76          6           0       -4.172041   -0.703557   -1.650000
     77          6           0       -4.172041    0.703557   -1.650000
     78          6           0       -5.364764    1.423858   -1.650000
     79          6           0       -2.774321   -1.116363   -1.650000
     80          6           0       -2.774321    1.116363   -1.650000
     81          7           0       -1.982317    0.000000   -1.650000
     82          7           0       -2.385083   -2.385083   -1.650000
     83          1           0       -7.503704   -1.232530   -1.650000
     84          1           0       -7.503704    1.232530   -1.650000
     85          1           0       -5.355287   -2.509174   -1.650000
     86          1           0       -5.355287    2.509174   -1.650000
     87          6           0        6.555074    0.702825   -1.650000
     88          6           0        6.555074   -0.702825   -1.650000
     89          6           0        5.364764    1.423858   -1.650000
     90          6           0        4.172041    0.703557   -1.650000
     91          6           0        4.172041   -0.703557   -1.650000
     92          6           0        5.364764   -1.423858   -1.650000
     93          6           0        2.774321    1.116363   -1.650000
     94          6           0        2.774321   -1.116363   -1.650000
     95          7           0        1.982317   -0.000000   -1.650000
     96          7           0        2.385083   -2.385083   -1.650000
     97          1           0        7.503704    1.232530   -1.650000
     98          1           0        7.503704   -1.232530   -1.650000
     99          1           0        5.355287    2.509174   -1.650000
    100          1           0        5.355287   -2.509174   -1.650000
    101          6           0        0.702825   -6.555074   -1.650000
    102          6           0       -0.702825   -6.555074   -1.650000
    103          6           0        1.423858   -5.364764   -1.650000
    104          6           0        0.703557   -4.172041   -1.650000
    105          6           0       -0.703557   -4.172041   -1.650000
    106          6           0       -1.423858   -5.364764   -1.650000
    107          6           0        1.116363   -2.774321   -1.650000
    108          6           0       -1.116363   -2.774321   -1.650000
    109          7           0       -0.000000   -1.982317   -1.650000
    110          1           0        1.232530   -7.503704   -1.650000
    111          1           0       -1.232530   -7.503704   -1.650000
    112          1           0        2.509174   -5.355287   -1.650000
    113          1           0       -2.509174   -5.355287   -1.650000
    114         30           0        0.000000    0.000000   -1.650000
 ---------------------------------------------------------------------
 Rotational constants (GHZ):      0.0349758      0.0349758      0.0223369
 Leave Link  202 at Wed Dec 18 17:00:07 2024, MaxMem=  2147483648 cpu:         0.0
 (Enter /opt/g09/l301.exe)
 Standard basis: def2SVP (5D, 7F)
 Ernie: Thresh=  0.10000D-02 Tol=  0.10000D-05 Strict=F.
 There are   194 symmetry adapted cartesian basis functions of AG  symmetry.
 There are   166 symmetry adapted cartesian basis functions of B1G symmetry.
 There are   178 symmetry adapted cartesian basis functions of B2G symmetry.
 There are   178 symmetry adapted cartesian basis functions of B3G symmetry.
 There are   166 symmetry adapted cartesian basis functions of AU  symmetry.
 There are   194 symmetry adapted cartesian basis functions of B1U symmetry.
 There are   178 symmetry adapted cartesian basis functions of B2U symmetry.
 There are   178 symmetry adapted cartesian basis functions of B3U symmetry.
 There are   180 symmetry adapted basis functions of AG  symmetry.
 There are   157 symmetry adapted basis functions of B1G symmetry.
 There are   167 symmetry adapted basis functions of B2G symmetry.
 There are   167 symmetry adapted basis functions of B3G symmetry.
 There are   157 symmetry adapted basis functions of AU  symmetry.
 There are   180 symmetry adapted basis functions of B1U symmetry.
 There are   167 symmetry adapted basis functions of B2U symmetry.
 There are   167 symmetry adapted basis functions of B3U symmetry.
  1342 basis functions,  2386 primitive gaussians,  1432 cartesian basis functions
   294 alpha electrons      294 beta electrons
       nuclear repulsion energy     17721.0131676029 Hartrees.
 IExCor=10402 DFT=T Ex=LC-B+HF Corr=LYP ExCW=0 ScaHFX=  1.000000
 ScaDFX=  1.000000  1.000000  1.000000  1.000000 ScalE2=  1.000000  1.000000
 IRadAn=      0 IRanWt=     -1 IRanGd=            0 ICorTp=0 IEmpDi=  4
  HFx wShort=  0.000000 wLong=  0.400000 cFull=  0.000000 cShort=  0.000000 cLong=  1.000000
  DFx wShort=  0.000000 wLong=  0.400000 cFull=  0.000000 cShort=  0.000000 cLong=  1.000000
 NAtoms=  114 NActive=  114 NUniq=    9 SFac= 4.00D+00 NAtFMM=   60 NAOKFM=T Big=F
 Integral buffers will be    131072 words long.
 Raffenetti 2 integral format.
 Two-electron integral symmetry is turned on.
 Leave Link  301 at Wed Dec 18 17:00:07 2024, MaxMem=  2147483648 cpu:         0.2
 (Enter /opt/g09/l302.exe)
 NPDir=0 NMtPBC=     1 NCelOv=     1 NCel=       1 NClECP=     1 NCelD=      1
         NCelK=      1 NCelE2=     1 NClLst=     1 CellRange=     0.0.
 One-electron integrals computed using PRISM.
 One-electron integral symmetry used in STVInt
  16 Symmetry operations used in ECPInt.
 ECPInt:  NShTT=  179101 NPrTT=  695647 LenC2=  134773 LenP2D=  312108.
 LDataN:  DoStor=T MaxTD1= 6 Len=  172
 NBasis=  1342 RedAO= T EigKep=  4.57D-05  NBF=   180   157   167   167   157   180   167   167
 NBsUse=  1342 1.00D-06 EigRej= -1.00D+00 NBFU=   180   157   167   167   157   180   167   167
 Precomputing XC quadrature grid using
 IXCGrd= 4 IRadAn=           0 IRanWt=          -1 IRanGd=           0 AccXCQ= 0.00D+00.
 Generated NRdTot=       0 NPtTot=           0 NUsed=           0 NTot=          32
 NSgBfM=  1150  1150  1150  1150  1150 MxSgAt=   114 MxSgA2=   114.
 Leave Link  302 at Wed Dec 18 17:00:09 2024, MaxMem=  2147483648 cpu:        14.8
 (Enter /opt/g09/l303.exe)
 DipDrv:  MaxL=1.
 Leave Link  303 at Wed Dec 18 17:00:09 2024, MaxMem=  2147483648 cpu:         1.3
 (Enter /opt/g09/l401.exe)
 ExpMin= 4.23D-02 ExpMax= 8.20D+04 ExpMxC= 1.23D+04 IAcc=2 IRadAn=         4 AccDes= 0.00D+00
 Harris functional with IExCor=10402 and IRadAn=       4 diagonalized for initial guess.
 HarFok:  IExCor=10402 AccDes= 0.00D+00 IRadAn=         4 IDoV= 1 UseB2=F ITyADJ=14
 ICtDFT=  3500011 ScaDFX=  1.000000  1.000000  1.000000  1.000000
 FoFCou: FMM=F IPFlag=           0 FMFlag=      100000 FMFlg1=        2000
         NFxFlg=           0 DoJE=T BraDBF=F KetDBF=T FulRan=T
         wScrn=  0.000000 ICntrl=     500 IOpCl=  0 I1Cent=   200000004 NGrid=           0
         NMat0=    1 NMatS0=      1 NMatT0=    0 NMatD0=    1 NMtDS0=    0 NMtDT0=    0
 Petite list used in FoFCou.
 Harris En= -6763.30890755969    
 JPrj=0 DoOrth=F DoCkMO=F.
 Initial guess orbital symmetries:
       Occupied  (A2U) (A1G) (A2U) (A1G) (EG) (EG) (EU) (EU) (A2U)
                 (A1G) (EG) (EG) (B2U) (A2U) (EU) (EU) (B1G) (A1G)
                 (A2U) (B1U) (EG) (EG) (A1G) (B2G) (EU) (EU) (A1U)
                 (EG) (EG) (B1U) (B2U) (EG) (EG) (A2U) (A2G) (EU)
                 (EU) (B2G) (B1G) (EU) (EU) (A1G) (B2U) (EG) (EG)
                 (A2U) (A1U) (EG) (EG) (B1U) (B1G) (EU) (EU) (A1G)
                 (A2G) (EU) (EU) (B2G) (B2U) (EG) (EG) (A2U) (A1U)
                 (EG) (EG) (B1U) (A2G) (EU) (EU) (B1G) (B2G) (EU)
                 (EU) (A1G) (B1U) (EG) (EG) (B2G) (A1U) (EU) (EU)
                 (A2U) (EG) (EG) (A1G) (A2G) (B2U) (EU) (EU) (B1G)
                 (A2U) (A1G) (EG) (EG) (EU) (EU) (A2U) (A1G) (A1G)
                 (A2U) (EU) (EU) (EG) (EG) (B1G) (B2U) (B2G) (B1U)
                 (EU) (EU) (EG) (EG) (A1G) (A2U) (B1G) (B2U) (EU)
                 (EU) (EG) (EG) (A1G) (A2U) (A2G) (A1U) (EU) (EU)
                 (A1G) (B2G) (EG) (EG) (EU) (EU) (A2U) (B1U) (B1G)
                 (EG) (EG) (B2U) (A2G) (A1U) (EU) (EU) (EG) (EG)
                 (A1G) (A2U) (EU) (EU) (B1G) (EG) (EG) (B2U) (B2G)
                 (B1U) (B1G) (B2U) (EU) (EU) (EG) (EG) (A2G) (A1U)
                 (B2G) (B1U) (A1G) (A2U) (EU) (EU) (EG) (EG) (B1G)
                 (B2U) (EU) (EU) (EG) (EG) (A1G) (A2U) (EU) (EU)
                 (A2G) (B2G) (A1U) (B1G) (EG) (EG) (B1U) (B2U)
                 (EU) (EU) (EG) (EG) (A1G) (A2U) (A1G) (A2G) (EU)
                 (EU) (B2G) (A1U) (EG) (EG) (B1U) (EU) (EU) (B1G)
                 (B2U) (EU) (EU) (A2G) (EG) (EG) (A1U) (B1G) (A2U)
                 (A1G) (A2U) (EG) (EG) (B2U) (A1G) (EU) (EU) (B2G)
                 (B1U) (EU) (EU) (B1G) (EG) (EG) (B2U) (A2G) (A1U)
                 (B2G) (A1G) (EU) (EU) (A2U) (EG) (EG) (B1G) (A2U)
                 (EG) (EG) (B1G) (EU) (EU) (B2U) (EG) (EG) (B1U)
                 (B2U) (EU) (EU) (A2G) (EG) (EG) (EU) (EU) (B2G)
                 (A1G) (A1G) (EU) (EU) (A2U) (B2G) (B1U) (A1G)
                 (B1G) (EG) (EG) (A1U) (EU) (EU) (EG) (EG) (A1G)
                 (A2U) (B1U) (EG) (EG) (A2U) (EU) (EU) (B2G) (B2U)
                 (B1U) (A2U) (EG) (EG) (A2G) (B1G) (A1U) (B2U)
       Virtual   (EU) (EU) (EG) (EG) (B2G) (A1G) (B1G) (EU) (EU)
                 (B1U) (B2U) (A2U) (EG) (EG) (A2G) (EU) (EU) (A1G)
                 (A2U) (A1U) (EG) (EG) (B2G) (A1G) (B1G) (A1G)
                 (EU) (EU) (B1G) (B2G) (B2U) (B1U) (EU) (EU) (A2U)
                 (EG) (EG) (A1G) (B2U) (EU) (EU) (A2G) (B1U) (EU)
                 (EU) (EG) (EG) (EG) (EG) (B2G) (A2U) (A1G) (A2G)
                 (A1U) (A2U) (B1G) (EU) (EU) (B2G) (EU) (EU) (EG)
                 (EG) (A2G) (A1G) (EU) (EU) (A1U) (B1U) (A2U) (EG)
                 (EG) (B1U) (B2U) (EG) (EG) (B1G) (B2G) (A1U) (EG)
                 (EG) (B1U) (EU) (EU) (A1G) (A2U) (B2G) (A2G) (EU)
                 (EU) (A1U) (EU) (EU) (B1G) (EG) (EG) (B2U) (A2G)
                 (EU) (EU) (B2G) (EG) (EG) (B1U) (A1G) (A1U) (B2U)
                 (B1G) (EU) (EU) (A1G) (A2U) (EG) (EG) (EU) (EU)
                 (EG) (EG) (B1G) (A1G) (A2U) (A2G) (EU) (EU) (A1G)
                 (B1G) (B2U) (A2U) (B2G) (EG) (EG) (EU) (EU) (A2U)
                 (B1U) (B1G) (EU) (EU) (A1G) (EG) (EG) (EU) (EU)
                 (B1U) (B2U) (B2G) (EU) (EU) (A2G) (B2G) (EG) (EG)
                 (A1G) (B1U) (B2U) (EG) (EG) (A2U) (B1G) (A1U)
                 (EG) (EG) (EU) (EU) (A2U) (A1U) (B1G) (A2G) (A1G)
                 (EU) (EU) (A2G) (EG) (EG) (B2U) (EU) (EU) (EG)
                 (EG) (B1G) (A1U) (B2G) (A1G) (B2U) (EU) (EU) (B1U)
                 (EU) (EU) (B2G) (B1G) (A1G) (EU) (EU) (EU) (EU)
                 (EG) (EG) (A2U) (B2G) (EG) (EG) (A2G) (A2G) (A1G)
                 (B1U) (A1U) (EU) (EU) (B1G) (A2G) (EG) (EG) (A1U)
                 (EU) (EU) (A2U) (B2U) (EG) (EG) (EG) (EG) (B1U)
                 (A2U) (B2U) (B2G) (A1U) (EG) (EG) (A1G) (B2G)
                 (EU) (EU) (B1U) (EU) (EU) (A1G) (EU) (EU) (B1G)
                 (A2G) (B2G) (EG) (EG) (B1U) (EU) (EU) (B2G) (A2U)
                 (A1G) (B1G) (EU) (EU) (EU) (EU) (A2G) (B2G) (A1G)
                 (A1U) (EG) (EG) (A1G) (EU) (EU) (EG) (EG) (A2U)
                 (B2U) (B1U) (A2U) (EU) (EU) (A2G) (B1G) (EU) (EU)
                 (A2G) (B1G) (EU) (EU) (EG) (EG) (A1U) (B2G) (B2U)
                 (EG) (EG) (A1G) (B1U) (B2G) (A2G) (B1G) (EU) (EU)
                 (EG) (EG) (A2U) (A1U) (EG) (EG) (B2G) (B2U) (EU)
                 (EU) (B1U) (EG) (EG) (A1G) (A2U) (A1U) (B1U) (B2U)
                 (A1G) (EU) (EU) (A2G) (EG) (EG) (EG) (EG) (EU)
                 (EU) (B2G) (B1G) (EU) (EU) (A1U) (B1G) (A2G) (EU)
                 (EU) (B1U) (A1U) (A2G) (EG) (EG) (EU) (EU) (B1U)
                 (B2G) (B2U) (A2U) (EG) (EG) (EG) (EG) (B2U) (A1G)
                 (EG) (EG) (A2G) (EU) (EU) (A2U) (B1G) (EU) (EU)
                 (A2U) (A1G) (B2G) (A1U) (EG) (EG) (B2U) (B1G)
                 (B2G) (EG) (EG) (EU) (EU) (B1U) (A2G) (B2G) (A2U)
                 (EG) (EG) (EU) (EU) (A2G) (A1U) (EU) (EU) (B1U)
                 (B2U) (EG) (EG) (A2U) (B2U) (EG) (EG) (A1G) (B1U)
                 (B2G) (EU) (EU) (EG) (EG) (A1U) (B1G) (EU) (EU)
                 (A1G) (B2U) (B1U) (A2U) (EG) (EG) (A1U) (EU) (EU)
                 (A1G) (B2G) (A2U) (EG) (EG) (EG) (EG) (A2G) (B1U)
                 (EU) (EU) (B1G) (A2U) (A1G) (EG) (EG) (A2G) (B1U)
                 (B2U) (A2U) (EU) (EU) (EG) (EG) (A1U) (B2G) (B1U)
                 (B2U) (EG) (EG) (B1G) (EG) (EG) (A1U) (A2U) (B2G)
                 (A2U) (B2U) (B1G) (EG) (EG) (EU) (EU) (EG) (EG)
                 (A1G) (A1U) (B1U) (EU) (EU) (B1G) (A1G) (EU) (EU)
                 (B2U) (EG) (EG) (B1G) (EU) (EU) (B2U) (A1G) (A1U)
                 (B1G) (B2U) (B1U) (EG) (EG) (A2U) (A1G) (EG) (EG)
                 (EU) (EU) (A2G) (B2G) (A2G) (EU) (EU) (B2U) (B1G)
                 (A2U) (EU) (EU) (B1U) (EG) (EG) (B1G) (EU) (EU)
                 (A2U) (EG) (EG) (EG) (EG) (A1G) (B1U) (B2U) (A1U)
                 (B2G) (A1G) (A2U) (EG) (EG) (A2G) (EG) (EG) (B2U)
                 (A1U) (EU) (EU) (B1U) (B2G) (EU) (EU) (A2U) (A1U)
                 (EG) (EG) (B1G) (EU) (EU) (B2U) (A2G) (EG) (EG)
                 (EU) (EU) (A1G) (A2U) (A2G) (B1U) (EG) (EG) (B1G)
                 (A1U) (A2G) (B2U) (B2G) (EG) (EG) (EU) (EU) (EG)
                 (EG) (A1G) (A2U) (EU) (EU) (A1U) (A1U) (EG) (EG)
                 (EU) (EU) (B1G) (B1U) (B2G) (B1U) (B2U) (EG) (EG)
                 (A2G) (EU) (EU) (A2U) (EU) (EU) (EG) (EG) (A1U)
                 (B2U) (A1G) (B1G) (B2G) (B1G) (A1G) (EU) (EU)
                 (EG) (EG) (A1G) (B1U) (EG) (EG) (B2G) (EU) (EU)
                 (A2G) (A1G) (A2U) (EU) (EU) (B2U) (A2G) (A2U)
                 (B2U) (EG) (EG) (EU) (EU) (B2G) (A2U) (EU) (EU)
                 (B1G) (B1G) (A2U) (A1G) (A1G) (B1U) (A1U) (EU)
                 (EU) (B2G) (EG) (EG) (A2G) (EU) (EU) (B2G) (A2G)
                 (EG) (EG) (EU) (EU) (EU) (EU) (B2U) (B1G) (A2U)
                 (A1G) (B1G) (EG) (EG) (EU) (EU) (B2U) (EG) (EG)
                 (A2G) (B1U) (A1U) (A2U) (EG) (EG) (EU) (EU) (B2U)
                 (EG) (EG) (A1G) (EU) (EU) (A1G) (B2U) (A2U) (EG)
                 (EG) (B2G) (B1U) (EG) (EG) (A1U) (B2G) (EG) (EG)
                 (A2U) (A2G) (B1U) (EU) (EU) (B1G) (A1U) (B1G)
                 (A1G) (A1U) (EU) (EU) (EG) (EG) (B1G) (B2G) (EU)
                 (EU) (EG) (EG) (B1U) (A2U) (B2U) (EU) (EU) (B2G)
                 (A1G) (A1G) (EU) (EU) (A2G) (B2U) (A2U) (B1U)
                 (EG) (EG) (EG) (EG) (A1U) (B1G) (B2U) (EU) (EU)
                 (EG) (EG) (B1U) (A2G) (B1G) (EG) (EG) (A2U) (A2U)
                 (A1G) (EU) (EU) (B1U) (EG) (EG) (B2U) (EU) (EU)
                 (B2G) (EG) (EG) (A1U) (A1U) (B2U) (B2G) (EU) (EU)
                 (A2G) (A2U) (EG) (EG) (B1G) (A2G) (EU) (EU) (A1G)
                 (EG) (EG) (B1U) (EU) (EU) (B1G) (A1G) (A2G) (EU)
                 (EU) (A1U) (B2G) (EG) (EG) (EU) (EU) (B2U) (B1U)
                 (EG) (EG) (A1U) (A2U) (B2G) (A1U) (EG) (EG) (B1G)
                 (EU) (EU) (B2U) (B1U) (B2G) (A2G) (EU) (EU) (EG)
                 (EG) (A2U) (EG) (EG) (A2G) (A1G) (EU) (EU) (B1U)
                 (B1G) (B2G) (A1U) (EG) (EG) (A2U) (EU) (EU) (A2G)
                 (B2U) (B1U) (B1G) (EG) (EG) (B2G) (A1G) (A1U)
                 (EU) (EU) (A1G) (EU) (EU) (A2G) (A2U) (EG) (EG)
                 (B2U) (B1U) (EG) (EG) (A2U) (A1U) (B1G) (EG) (EG)
                 (B2U) (B1G) (EU) (EU) (A1U) (EG) (EG) (A1G) (B1U)
                 (B2U) (B2U) (EG) (EG) (EU) (EU) (A1G) (B2G) (A2G)
                 (B1U) (EU) (EU) (A2U) (B2G) (A1U) (EG) (EG) (A2U)
                 (B2G) (EG) (EG) (B1U) (EU) (EU) (EU) (EU) (B1G)
                 (A2G) (EG) (EG) (EU) (EU) (A1G) (A2G) (B1G) (A1U)
                 (B1U) (EU) (EU) (B2G) (EG) (EG) (A2G) (B2U) (EU)
                 (EU) (A1U) (A1G) (EG) (EG) (A2G) (A2U) (B2G) (EG)
                 (EG) (B2U) (B1U) (A1U) (B2G) (EU) (EU) (A1G) (A2U)
                 (EG) (EG) (EU) (EU) (B1U) (A1G) (A2U) (EU) (EU)
                 (B1G) (EG) (EG) (EG) (EG) (B2G) (B1U) (A1U) (A2U)
                 (B1U) (EG) (EG) (B2U) (A1G) (EU) (EU) (B1G) (EU)
                 (EU) (B2U) (EU) (EU) (A2G) (B2G) (A2U) (B1G) (EG)
                 (EG) (EG) (EG) (A1G) (A2G) (A1U) (A2G) (EG) (EG)
                 (A1U) (B1U) (EU) (EU) (EU) (EU) (EG) (EG) (B1G)
                 (B2G) (B2U) (A2U) (B2U) (EU) (EU) (B2G) (A2G)
                 (B1U) (EG) (EG) (B1G) (A1U) (EU) (EU) (B1U) (B2U)
                 (B2G) (EG) (EG) (A1U) (A1G) (EG) (EG) (EU) (EU)
                 (B1U) (A2G) (A2U) (B1G) (EG) (EG) (B2U) (EU) (EU)
                 (A1U) (A1G) (EG) (EG) (A2U) (EU) (EU) (A2G) (B2G)
                 (EG) (EG) (B1U) (A1U) (EU) (EU) (EG) (EG) (B1G)
                 (B2G) (A1G) (B2U) (B1U) (A2U) (A2G) (EU) (EU)
                 (A1U) (EG) (EG) (A2G) (A1U) (EU) (EU) (EG) (EG)
                 (B2G) (B1U) (B2G) (B1U) (B1G) (A1G) (A2U) (B2U)
                 (EU) (EU) (EG) (EG) (EU) (EU) (EG) (EG)
 The electronic state of the initial guess is 1-A1G.
 Leave Link  401 at Wed Dec 18 17:00:11 2024, MaxMem=  2147483648 cpu:        12.6
 (Enter /opt/g09/l502.exe)
 Closed shell SCF:
 Using DIIS extrapolation, IDIIS=  1040.
 Integral symmetry usage will be decided dynamically.
 IVT=     6211030 IEndB=     6211030 NGot=  2147483648 MDV=  2143341315
 LenX=  2143341315 LenY=  2141289259
 Requested convergence on RMS density matrix=1.00D-08 within 128 cycles.
 Requested convergence on MAX density matrix=1.00D-06.
 Requested convergence on             energy=1.00D-06.
 No special actions if energy rises.
 Fock matrices will be formed incrementally for  20 cycles.

 Cycle   1  Pass 1  IDiag  1:
 FoFJK:  IHMeth= 1 ICntrl=       0 DoSepK=T KAlg= 0 I1Cent=   0 FoldK=F
 IRaf=         1 NMat=   1 IRICut=       1 DoRegI=T DoRafI=F ISym2E= 1.
 FoFCou: FMM=F IPFlag=           0 FMFlag=      100000 FMFlg1=        2000
         NFxFlg=           0 DoJE=T BraDBF=F KetDBF=F FulRan=T
         wScrn=  0.000000 ICntrl=     500 IOpCl=  0 I1Cent=           0 NGrid=           0
         NMat0=    1 NMatS0=      1 NMatT0=    0 NMatD0=    1 NMtDS0=    0 NMtDT0=    0
 Petite list used in FoFCou.
 E= -6879.68239284781    
 DIIS: error= 1.03D-01 at cycle   1 NSaved=   1.
 NSaved= 1 IEnMin= 1 EnMin= -6879.68239284781     IErMin= 1 ErrMin= 1.03D-01
 ErrMax= 1.03D-01  0.00D+00 EMaxC= 1.00D-01 BMatC= 1.37D+00 BMatP= 1.37D+00
 IDIUse=3 WtCom= 0.00D+00 WtEn= 1.00D+00
 Coeff-Com:  0.100D+01
 Coeff-En:   0.100D+01
 Coeff:      0.100D+01
 Gap=     0.144 Goal=   None    Shift=    0.000
 GapD=    0.144 DampG=1.000 DampE=0.125 DampFc=0.1250 IDamp=-1.
 Damping current iteration by 1.25D-01
 RMSDP=2.98D-03 MaxDP=1.93D-01              OVMax= 1.78D-01

 Cycle   2  Pass 1  IDiag  1:
 RMSU=  3.33D-04    CP:  9.86D-01
 E= -6879.89006098625     Delta-E=       -0.207668138439 Rises=F Damp=T
 DIIS: error= 7.38D-02 at cycle   2 NSaved=   2.
 NSaved= 2 IEnMin= 2 EnMin= -6879.89006098625     IErMin= 2 ErrMin= 7.38D-02
 ErrMax= 7.38D-02  0.00D+00 EMaxC= 1.00D-01 BMatC= 7.61D-01 BMatP= 1.37D+00
 IDIUse=3 WtCom= 2.62D-01 WtEn= 7.38D-01
 Coeff-Com: -0.272D+01 0.372D+01
 Coeff-En:   0.000D+00 0.100D+01
 Coeff:     -0.712D+00 0.171D+01
 Gap=     0.143 Goal=   None    Shift=    0.000
 RMSDP=2.46D-03 MaxDP=1.54D-01 DE=-2.08D-01 OVMax= 5.76D-02

 Cycle   3  Pass 1  IDiag  1:
 RMSU=  1.50D-03    CP:  8.86D-01  3.00D+00
 E= -6880.39315289444     Delta-E=       -0.503091908191 Rises=F Damp=F
 DIIS: error= 6.65D-02 at cycle   3 NSaved=   3.
 NSaved= 3 IEnMin= 3 EnMin= -6880.39315289444     IErMin= 3 ErrMin= 6.65D-02
 ErrMax= 6.65D-02  0.00D+00 EMaxC= 1.00D-01 BMatC= 4.91D-01 BMatP= 7.61D-01
 IDIUse=3 WtCom= 3.35D-01 WtEn= 6.65D-01
 EnCoef did   100 forward-backward iterations
 Coeff-Com:  0.173D+01-0.164D+01 0.905D+00
 Coeff-En:   0.169D+00 0.641D-02 0.825D+00
 Coeff:      0.691D+00-0.543D+00 0.852D+00
 Gap=     0.158 Goal=   None    Shift=    0.000
 RMSDP=7.91D-04 MaxDP=9.71D-02 DE=-5.03D-01 OVMax= 6.80D-02

 Cycle   4  Pass 1  IDiag  1:
 RMSU=  7.32D-04    CP:  8.88D-01  3.00D+00  8.02D-01
 E= -6880.62569487228     Delta-E=       -0.232541977835 Rises=F Damp=F
 DIIS: error= 3.97D-02 at cycle   4 NSaved=   4.
 NSaved= 4 IEnMin= 4 EnMin= -6880.62569487228     IErMin= 4 ErrMin= 3.97D-02
 ErrMax= 3.97D-02  0.00D+00 EMaxC= 1.00D-01 BMatC= 1.34D-01 BMatP= 4.91D-01
 IDIUse=3 WtCom= 6.03D-01 WtEn= 3.97D-01
 Coeff-Com: -0.132D+01 0.159D+01 0.698D-01 0.660D+00
 Coeff-En:   0.000D+00 0.000D+00 0.160D+00 0.840D+00
 Coeff:     -0.796D+00 0.960D+00 0.105D+00 0.731D+00
 Gap=     0.147 Goal=   None    Shift=    0.000
 RMSDP=3.95D-04 MaxDP=4.02D-02 DE=-2.33D-01 OVMax= 4.22D-02

 Cycle   5  Pass 1  IDiag  1:
 RMSU=  1.46D-04    CP:  8.82D-01  3.00D+00  9.55D-01  6.22D-01
 E= -6880.68683710024     Delta-E=       -0.061142227962 Rises=F Damp=F
 DIIS: error= 1.57D-02 at cycle   5 NSaved=   5.
 NSaved= 5 IEnMin= 5 EnMin= -6880.68683710024     IErMin= 5 ErrMin= 1.57D-02
 ErrMax= 1.57D-02  0.00D+00 EMaxC= 1.00D-01 BMatC= 1.96D-02 BMatP= 1.34D-01
 IDIUse=3 WtCom= 8.43D-01 WtEn= 1.57D-01
 Coeff-Com: -0.539D+00 0.610D+00-0.202D-01 0.435D+00 0.514D+00
 Coeff-En:   0.000D+00 0.000D+00 0.000D+00 0.559D-01 0.944D+00
 Coeff:     -0.455D+00 0.514D+00-0.170D-01 0.376D+00 0.581D+00
 Gap=     0.148 Goal=   None    Shift=    0.000
 RMSDP=1.02D-04 MaxDP=1.28D-02 DE=-6.11D-02 OVMax= 1.06D-02

 Cycle   6  Pass 1  IDiag  1:
 RMSU=  4.66D-05    CP:  8.82D-01  3.00D+00  9.40D-01  7.29D-01  7.36D-01
 E= -6880.69575337154     Delta-E=       -0.008916271297 Rises=F Damp=F
 DIIS: error= 1.41D-03 at cycle   6 NSaved=   6.
 NSaved= 6 IEnMin= 6 EnMin= -6880.69575337154     IErMin= 6 ErrMin= 1.41D-03
 ErrMax= 1.41D-03  0.00D+00 EMaxC= 1.00D-01 BMatC= 1.71D-04 BMatP= 1.96D-02
 IDIUse=3 WtCom= 9.86D-01 WtEn= 1.41D-02
 Coeff-Com: -0.797D-01 0.824D-01-0.302D-01 0.308D-01 0.139D+00 0.857D+00
 Coeff-En:   0.000D+00 0.000D+00 0.000D+00 0.000D+00 0.000D+00 0.100D+01
 Coeff:     -0.786D-01 0.813D-01-0.298D-01 0.304D-01 0.137D+00 0.859D+00
 Gap=     0.148 Goal=   None    Shift=    0.000
 RMSDP=2.31D-05 MaxDP=3.75D-03 DE=-8.92D-03 OVMax= 2.50D-03

 Cycle   7  Pass 1  IDiag  1:
 RMSU=  1.23D-05    CP:  8.81D-01  3.00D+00  9.49D-01  7.26D-01  8.10D-01
                    CP:  1.03D+00
 E= -6880.69595610871     Delta-E=       -0.000202737174 Rises=F Damp=F
 DIIS: error= 3.58D-04 at cycle   7 NSaved=   7.
 NSaved= 7 IEnMin= 7 EnMin= -6880.69595610871     IErMin= 7 ErrMin= 3.58D-04
 ErrMax= 3.58D-04  0.00D+00 EMaxC= 1.00D-01 BMatC= 2.30D-05 BMatP= 1.71D-04
 IDIUse=3 WtCom= 9.96D-01 WtEn= 3.58D-03
 Coeff-Com:  0.229D-02-0.516D-02-0.117D-01-0.231D-01-0.104D-01 0.298D+00
 Coeff-Com:  0.750D+00
 Coeff-En:   0.000D+00 0.000D+00 0.000D+00 0.000D+00 0.000D+00 0.000D+00
 Coeff-En:   0.100D+01
 Coeff:      0.228D-02-0.514D-02-0.116D-01-0.230D-01-0.104D-01 0.297D+00
 Coeff:      0.751D+00
 Gap=     0.149 Goal=   None    Shift=    0.000
 RMSDP=6.81D-06 MaxDP=6.82D-04 DE=-2.03D-04 OVMax= 1.17D-03

 Cycle   8  Pass 1  IDiag  1:
 RMSU=  5.13D-06    CP:  8.81D-01  3.00D+00  9.49D-01  7.29D-01  8.21D-01
                    CP:  1.10D+00  1.05D+00
 E= -6880.69598599500     Delta-E=       -0.000029886291 Rises=F Damp=F
 DIIS: error= 7.32D-05 at cycle   8 NSaved=   8.
 NSaved= 8 IEnMin= 8 EnMin= -6880.69598599500     IErMin= 8 ErrMin= 7.32D-05
 ErrMax= 7.32D-05  0.00D+00 EMaxC= 1.00D-01 BMatC= 3.50D-06 BMatP= 2.30D-05
 IDIUse=1 WtCom= 1.00D+00 WtEn= 0.00D+00
 Coeff-Com:  0.547D-03 0.606D-03-0.137D-02-0.132D-01-0.337D-01-0.556D-01
 Coeff-Com:  0.321D+00 0.782D+00
 Coeff:      0.547D-03 0.606D-03-0.137D-02-0.132D-01-0.337D-01-0.556D-01
 Coeff:      0.321D+00 0.782D+00
 Gap=     0.149 Goal=   None    Shift=    0.000
 RMSDP=3.16D-06 MaxDP=2.55D-04 DE=-2.99D-05 OVMax= 6.46D-04

 Cycle   9  Pass 1  IDiag  1:
 RMSU=  1.93D-06    CP:  8.81D-01  3.00D+00  9.49D-01  7.28D-01  8.25D-01
                    CP:  1.14D+00  1.18D+00  1.03D+00
 E= -6880.69599277301     Delta-E=       -0.000006778013 Rises=F Damp=F
 DIIS: error= 2.97D-05 at cycle   9 NSaved=   9.
 NSaved= 9 IEnMin= 9 EnMin= -6880.69599277301     IErMin= 9 ErrMin= 2.97D-05
 ErrMax= 2.97D-05  0.00D+00 EMaxC= 1.00D-01 BMatC= 2.58D-07 BMatP= 3.50D-06
 IDIUse=1 WtCom= 1.00D+00 WtEn= 0.00D+00
 Coeff-Com:  0.145D-02-0.115D-02 0.145D-02 0.605D-03-0.416D-02-0.519D-01
 Coeff-Com: -0.443D-01 0.138D+00 0.959D+00
 Coeff:      0.145D-02-0.115D-02 0.145D-02 0.605D-03-0.416D-02-0.519D-01
 Coeff:     -0.443D-01 0.138D+00 0.959D+00
 Gap=     0.149 Goal=   None    Shift=    0.000
 RMSDP=1.25D-06 MaxDP=6.91D-05 DE=-6.78D-06 OVMax= 3.60D-04

 Cycle  10  Pass 1  IDiag  1:
 RMSU=  8.18D-07    CP:  8.81D-01  3.00D+00  9.49D-01  7.28D-01  8.25D-01
                    CP:  1.14D+00  1.22D+00  1.14D+00  1.17D+00
 E= -6880.69599386320     Delta-E=       -0.000001090186 Rises=F Damp=F
 DIIS: error= 1.45D-05 at cycle  10 NSaved=  10.
 NSaved=10 IEnMin=10 EnMin= -6880.69599386320     IErMin=10 ErrMin= 1.45D-05
 ErrMax= 1.45D-05  0.00D+00 EMaxC= 1.00D-01 BMatC= 5.77D-08 BMatP= 2.58D-07
 IDIUse=1 WtCom= 1.00D+00 WtEn= 0.00D+00
 Coeff-Com: -0.558D-03 0.617D-03 0.331D-03 0.194D-02 0.469D-02 0.132D-02
 Coeff-Com: -0.532D-01-0.107D+00 0.156D+00 0.995D+00
 Coeff:     -0.558D-03 0.617D-03 0.331D-03 0.194D-02 0.469D-02 0.132D-02
 Coeff:     -0.532D-01-0.107D+00 0.156D+00 0.995D+00
 Gap=     0.149 Goal=   None    Shift=    0.000
 RMSDP=6.31D-07 MaxDP=3.38D-05 DE=-1.09D-06 OVMax= 1.34D-04

 Cycle  11  Pass 1  IDiag  1:
 RMSU=  3.31D-07    CP:  8.81D-01  3.00D+00  9.49D-01  7.28D-01  8.26D-01
                    CP:  1.14D+00  1.22D+00  1.19D+00  1.38D+00  1.18D+00
 E= -6880.69599408388     Delta-E=       -0.000000220683 Rises=F Damp=F
 DIIS: error= 8.16D-06 at cycle  11 NSaved=  11.
 NSaved=11 IEnMin=11 EnMin= -6880.69599408388     IErMin=11 ErrMin= 8.16D-06
 ErrMax= 8.16D-06  0.00D+00 EMaxC= 1.00D-01 BMatC= 1.43D-08 BMatP= 5.77D-08
 IDIUse=1 WtCom= 1.00D+00 WtEn= 0.00D+00
 Coeff-Com:  0.288D-03-0.458D-03-0.109D-04 0.583D-03 0.276D-02 0.966D-02
 Coeff-Com: -0.135D-01-0.620D-01-0.101D+00 0.388D+00 0.776D+00
 Coeff:      0.288D-03-0.458D-03-0.109D-04 0.583D-03 0.276D-02 0.966D-02
 Coeff:     -0.135D-01-0.620D-01-0.101D+00 0.388D+00 0.776D+00
 Gap=     0.149 Goal=   None    Shift=    0.000
 RMSDP=2.28D-07 MaxDP=1.19D-05 DE=-2.21D-07 OVMax= 6.78D-05

 Cycle  12  Pass 1  IDiag  1:
 RMSU=  1.41D-07    CP:  8.81D-01  3.00D+00  9.49D-01  7.28D-01  8.25D-01
                    CP:  1.14D+00  1.23D+00  1.20D+00  1.42D+00  1.36D+00
                    CP:  1.04D+00
 E= -6880.69599412739     Delta-E=       -0.000000043507 Rises=F Damp=F
 DIIS: error= 3.70D-06 at cycle  12 NSaved=  12.
 NSaved=12 IEnMin=12 EnMin= -6880.69599412739     IErMin=12 ErrMin= 3.70D-06
 ErrMax= 3.70D-06  0.00D+00 EMaxC= 1.00D-01 BMatC= 2.34D-09 BMatP= 1.43D-08
 IDIUse=1 WtCom= 1.00D+00 WtEn= 0.00D+00
 Coeff-Com:  0.482D-04-0.605D-04-0.770D-04-0.340D-03-0.604D-03 0.573D-03
 Coeff-Com:  0.861D-02 0.187D-01-0.533D-01-0.161D+00 0.907D-01 0.110D+01
 Coeff:      0.482D-04-0.605D-04-0.770D-04-0.340D-03-0.604D-03 0.573D-03
 Coeff:      0.861D-02 0.187D-01-0.533D-01-0.161D+00 0.907D-01 0.110D+01
 Gap=     0.149 Goal=   None    Shift=    0.000
 RMSDP=1.38D-07 MaxDP=8.41D-06 DE=-4.35D-08 OVMax= 3.54D-05

 Cycle  13  Pass 1  IDiag  1:
 RMSU=  5.86D-08    CP:  8.81D-01  3.00D+00  9.49D-01  7.28D-01  8.25D-01
                    CP:  1.14D+00  1.22D+00  1.20D+00  1.44D+00  1.44D+00
                    CP:  1.24D+00  1.43D+00
 E= -6880.69599413977     Delta-E=       -0.000000012384 Rises=F Damp=F
 DIIS: error= 1.35D-06 at cycle  13 NSaved=  13.
 NSaved=13 IEnMin=13 EnMin= -6880.69599413977     IErMin=13 ErrMin= 1.35D-06
 ErrMax= 1.35D-06  0.00D+00 EMaxC= 1.00D-01 BMatC= 6.09D-10 BMatP= 2.34D-09
 IDIUse=1 WtCom= 1.00D+00 WtEn= 0.00D+00
 Coeff-Com: -0.238D-04 0.444D-04-0.262D-04-0.219D-03-0.689D-03-0.136D-02
 Coeff-Com:  0.497D-02 0.187D-01-0.715D-02-0.129D+00-0.115D+00 0.446D+00
 Coeff-Com:  0.783D+00
 Coeff:     -0.238D-04 0.444D-04-0.262D-04-0.219D-03-0.689D-03-0.136D-02
 Coeff:      0.497D-02 0.187D-01-0.715D-02-0.129D+00-0.115D+00 0.446D+00
 Coeff:      0.783D+00
 Gap=     0.149 Goal=   None    Shift=    0.000
 RMSDP=5.41D-08 MaxDP=2.86D-06 DE=-1.24D-08 OVMax= 1.32D-05

 Cycle  14  Pass 1  IDiag  1:
 RMSU=  2.62D-08    CP:  8.81D-01  3.00D+00  9.49D-01  7.28D-01  8.25D-01
                    CP:  1.14D+00  1.23D+00  1.20D+00  1.44D+00  1.46D+00
                    CP:  1.32D+00  1.65D+00  1.11D+00
 E= -6880.69599414051     Delta-E=       -0.000000000739 Rises=F Damp=F
 DIIS: error= 5.93D-07 at cycle  14 NSaved=  14.
 NSaved=14 IEnMin=14 EnMin= -6880.69599414051     IErMin=14 ErrMin= 5.93D-07
 ErrMax= 5.93D-07  0.00D+00 EMaxC= 1.00D-01 BMatC= 9.30D-11 BMatP= 6.09D-10
 IDIUse=1 WtCom= 1.00D+00 WtEn= 0.00D+00
 Coeff-Com: -0.393D-04 0.472D-04 0.938D-05 0.561D-04 0.292D-04-0.168D-03
 Coeff-Com: -0.155D-02-0.972D-03 0.103D-01 0.253D-01-0.402D-01-0.171D+00
 Coeff-Com:  0.950D-01 0.108D+01
 Coeff:     -0.393D-04 0.472D-04 0.938D-05 0.561D-04 0.292D-04-0.168D-03
 Coeff:     -0.155D-02-0.972D-03 0.103D-01 0.253D-01-0.402D-01-0.171D+00
 Coeff:      0.950D-01 0.108D+01
 Gap=     0.149 Goal=   None    Shift=    0.000
 RMSDP=2.53D-08 MaxDP=1.04D-06 DE=-7.39D-10 OVMax= 5.56D-06

 Cycle  15  Pass 1  IDiag  1:
 RMSU=  8.48D-09    CP:  8.81D-01  3.00D+00  9.49D-01  7.28D-01  8.25D-01
                    CP:  1.14D+00  1.23D+00  1.20D+00  1.44D+00  1.46D+00
                    CP:  1.32D+00  1.75D+00  1.35D+00  1.32D+00
 E= -6880.69599414072     Delta-E=       -0.000000000207 Rises=F Damp=F
 DIIS: error= 1.59D-07 at cycle  15 NSaved=  15.
 NSaved=15 IEnMin=15 EnMin= -6880.69599414072     IErMin=15 ErrMin= 1.59D-07
 ErrMax= 1.59D-07  0.00D+00 EMaxC= 1.00D-01 BMatC= 6.36D-12 BMatP= 9.30D-11
 IDIUse=1 WtCom= 1.00D+00 WtEn= 0.00D+00
 Coeff-Com: -0.153D-04 0.166D-04 0.218D-05 0.299D-04 0.597D-04 0.121D-03
 Coeff-Com: -0.780D-03-0.178D-02 0.137D-02 0.159D-01-0.155D-03-0.626D-01
 Coeff-Com: -0.426D-01 0.163D+00 0.927D+00
 Coeff:     -0.153D-04 0.166D-04 0.218D-05 0.299D-04 0.597D-04 0.121D-03
 Coeff:     -0.780D-03-0.178D-02 0.137D-02 0.159D-01-0.155D-03-0.626D-01
 Coeff:     -0.426D-01 0.163D+00 0.927D+00
 Gap=     0.149 Goal=   None    Shift=    0.000
 RMSDP=6.19D-09 MaxDP=2.67D-07 DE=-2.07D-10 OVMax= 1.37D-06

 SCF Done:  E(RLC-B+HF-LYP) =  -6880.69599414     A.U. after   15 cycles
            NFock= 15  Conv=0.62D-08     -V/T= 2.0056
 KE= 6.842479157811D+03 PE=-5.167781327762D+04 EE= 2.023362495806D+04
 Leave Link  502 at Wed Dec 18 17:02:05 2024, MaxMem=  2147483648 cpu:       908.6
 (Enter /opt/g09/l601.exe)
 Copying SCF densities to generalized density rwf, IOpCl= 0 IROHF=0.
 Hyperfine terms turned off by default for NAtoms > 100.

 **********************************************************************

            Population analysis using the SCF density.

 **********************************************************************

 Orbital symmetries:
       Occupied  (A2U) (A1G) (A2U) (A1G) (A2U) (A1G) (EG) (EG)
                 (EU) (EU) (EG) (EG) (B2U) (A2U) (EU) (EU) (B1G)
                 (A1G) (A2U) (B1U) (EG) (EG) (A1G) (B2G) (EU) (EU)
                 (B1U) (EG) (EG) (B2G) (A1U) (EU) (EU) (A2U) (EG)
                 (EG) (A2G) (A1G) (B2U) (EU) (EU) (B1G) (A1U) (EG)
                 (EG) (B1U) (A2G) (B2U) (EG) (EG) (A2U) (EU) (EU)
                 (B2G) (B1G) (EU) (EU) (A1G) (B2U) (EG) (EG) (A2U)
                 (A1U) (EG) (EG) (B1U) (EU) (EU) (B1G) (A1G) (A2G)
                 (EU) (EU) (B2G) (B2U) (EG) (EG) (A2U) (A1U) (B1G)
                 (EG) (EG) (EU) (EU) (B1U) (A1G) (A2G) (EU) (EU)
                 (B2G) (A2U) (A1G) (A1G) (A2U) (EG) (EG) (EU) (EU)
                 (A1G) (A2U) (EU) (EU) (EG) (EG) (B1G) (B2U) (B2G)
                 (B1U) (EU) (EU) (EG) (EG) (A1G) (A2U) (EU) (EU)
                 (B1G) (A1G) (EG) (EG) (B2U) (A2U) (A2G) (A1U)
                 (A1G) (EU) (EU) (A2U) (EU) (EU) (B1G) (EG) (EG)
                 (B2G) (EG) (EG) (B2U) (B1U) (A2G) (A1U) (EU) (EU)
                 (EG) (EG) (A1G) (B1G) (B2U) (A2U) (EU) (EU) (EG)
                 (EG) (B2G) (B1G) (B1U) (B2U) (EU) (EU) (B2G) (B1U)
                 (EG) (EG) (A2G) (A1U) (A1G) (A2U) (EU) (EU) (EG)
                 (EG) (B1G) (EU) (EU) (B2U) (EG) (EG) (A1G) (A2G)
                 (B2G) (A1U) (A1G) (B1G) (A2U) (B1U) (B2U) (EU)
                 (EU) (EU) (EU) (EG) (EG) (EG) (EG) (EU) (EU) (A1G)
                 (EG) (EG) (A2U) (EU) (EU) (A2G) (A2U) (B2G) (B1U)
                 (B1G) (A1U) (B1G) (B2U) (A1G) (A2U) (EU) (EU)
                 (B2G) (EG) (EG) (EG) (EG) (B1U) (A2G) (EU) (EU)
                 (A1U) (EG) (EG) (B1G) (A1G) (B2U) (B2U) (B2G)
                 (A2U) (A1G) (EU) (EU) (B1U) (B1G) (B2G) (EU) (EU)
                 (B1U) (EG) (EG) (EU) (EU) (A2G) (A1U) (EG) (EG)
                 (EG) (EG) (A2U) (A1G) (A2U) (EU) (EU) (B1G) (EG)
                 (EG) (B2U) (EU) (EU) (B2U) (A1G) (A2U) (EG) (EG)
                 (A2G) (EU) (EU) (EG) (EG) (A1G) (B2G) (EU) (EU)
                 (B2G) (B1U) (EU) (EU) (B1G) (A1U) (B1G) (B2U)
                 (A1G) (A2U) (B1U) (EG) (EG) (EG) (EG) (B2U) (A2U)
                 (A2G) (A1U)
       Virtual   (EU) (EU) (EG) (EG) (B2G) (B1G) (A1G) (EU) (EU)
                 (B1U) (B2U) (A2U) (EG) (EG) (A2G) (EU) (EU) (A1G)
                 (A2U) (A1G) (A1G) (B1G) (A1U) (EU) (EU) (EG) (EG)
                 (B1G) (B2G) (B2G) (EU) (EU) (B2U) (A2U) (EG) (EG)
                 (A1G) (B1U) (B2U) (A2G) (EU) (EU) (B1U) (B2G)
                 (EG) (EG) (EU) (EU) (A2U) (A1G) (A1U) (B1G) (A2U)
                 (EG) (EG) (EU) (EU) (EU) (EU) (A2G) (EG) (EG)
                 (B1U) (A1G) (A2U) (B2U) (B1G) (A2G) (EG) (EG)
                 (B2G) (A1U) (EU) (EU) (B2G) (EG) (EG) (A1U) (B1U)
                 (EG) (EG) (B2G) (B1U) (EU) (EU) (A1G) (EU) (EU)
                 (A2U) (B2U) (A2G) (B1G) (EU) (EU) (EU) (EU) (A2G)
                 (EG) (EG) (A1U) (A1G) (B2G) (EG) (EG) (A2U) (A1G)
                 (B1U) (EU) (EU) (A1U) (B1G) (EU) (EU) (A2G) (EG)
                 (EG) (B2U) (A1G) (EG) (EG) (B1G) (A2U) (EU) (EU)
                 (A1G) (B2G) (A2U) (B1G) (EG) (EG) (B1U) (EU) (EU)
                 (B2U) (EU) (EU) (B1G) (A2U) (A1G) (EG) (EG) (EU)
                 (EU) (B2U) (B1U) (B2G) (A2G) (A1G) (EU) (EU) (EG)
                 (EG) (B2U) (B2G) (A2U) (EG) (EG) (B1U) (A1U) (B1G)
                 (EG) (EG) (EU) (EU) (B1G) (A1G) (A2U) (EU) (EU)
                 (EG) (EG) (A1U) (B2U) (A2G) (EG) (EG) (B2U) (A2G)
                 (EU) (EU) (B1G) (A1G) (B1U) (B2G) (EU) (EU) (A1U)
                 (B2G) (EU) (EU) (B1G) (EU) (EU) (A2U) (B2G) (A1G)
                 (EU) (EU) (EG) (EG) (A1G) (A2G) (EG) (EG) (B1G)
                 (A1U) (EU) (EU) (B1U) (A2G) (EG) (EG) (A2G) (B2U)
                 (A2U) (EU) (EU) (EG) (EG) (A2U) (A1U) (EG) (EG)
                 (A1G) (B2G) (B1U) (B2U) (A1U) (EU) (EU) (EG) (EG)
                 (EU) (EU) (B2G) (A1G) (B1U) (EU) (EU) (A2G) (B1G)
                 (EG) (EG) (B2G) (A2U) (B1U) (EU) (EU) (B2G) (A1G)
                 (B1G) (EU) (EU) (EU) (EU) (A1G) (A2G) (EU) (EU)
                 (EG) (EG) (B2G) (A1U) (A1G) (B2U) (B1G) (A2U)
                 (EG) (EG) (A2G) (EU) (EU) (B1U) (A2G) (EU) (EU)
                 (A2U) (EU) (EU) (B2G) (B1G) (A1G) (A1U) (EG) (EG)
                 (B2U) (B2G) (EG) (EG) (B1U) (EG) (EG) (B1G) (A2G)
                 (EU) (EU) (B2G) (A1U) (EG) (EG) (A2U) (EU) (EU)
                 (A2U) (EG) (EG) (B1U) (B2U) (EU) (EU) (B2U) (A1G)
                 (B1U) (A1U) (A1G) (A2G) (EU) (EU) (EG) (EG) (EU)
                 (EU) (B1G) (EG) (EG) (B2G) (A1U) (B1G) (EU) (EU)
                 (B1U) (A2G) (EU) (EU) (A2G) (EG) (EG) (A1U) (B1U)
                 (B2U) (EG) (EG) (A2U) (A1G) (A2G) (B2U) (EG) (EG)
                 (A2U) (EG) (EG) (B2G) (EU) (EU) (B1G) (A2U) (A1U)
                 (A1G) (EU) (EU) (EG) (EG) (B2U) (B2G) (B1G) (B2G)
                 (EG) (EG) (A2G) (B1U) (A2U) (EU) (EU) (EU) (EU)
                 (EG) (EG) (B2G) (A1U) (EU) (EU) (A2G) (B1U) (EG)
                 (EG) (B2U) (A2U) (B2U) (EG) (EG) (B2G) (B1U) (A1G)
                 (EU) (EU) (EG) (EG) (B1G) (A1U) (B1U) (EU) (EU)
                 (A1G) (B2U) (A2U) (EG) (EG) (A1U) (EU) (EU) (A1G)
                 (B2G) (A2U) (EG) (EG) (B1G) (A2G) (EG) (EG) (EU)
                 (EU) (B1U) (A2U) (A1G) (A2G) (EG) (EG) (B2U) (B1U)
                 (EG) (EG) (EU) (EU) (A2U) (A1U) (B2G) (B1U) (B2U)
                 (EG) (EG) (B1G) (EG) (EG) (B2G) (A2U) (A1U) (B2U)
                 (A2U) (EG) (EG) (B1G) (EU) (EU) (EG) (EG) (A1G)
                 (A1U) (B1U) (EU) (EU) (A1G) (B1G) (EG) (EG) (EU)
                 (EU) (A1U) (B2U) (B1G) (B1U) (B2U) (A1G) (A2G)
                 (EU) (EU) (B1G) (EU) (EU) (EG) (EG) (B2U) (B1G)
                 (B2G) (EG) (EG) (B1U) (A1G) (EU) (EU) (A2G) (EU)
                 (EU) (A2U) (B2U) (A2U) (A2U) (EG) (EG) (A1G) (B1G)
                 (EU) (EU) (B2G) (EG) (EG) (EG) (EG) (B1U) (A2U)
                 (B2U) (A1U) (A1G) (EU) (EU) (EG) (EG) (B2U) (EG)
                 (EG) (A1U) (A2G) (EU) (EU) (B2G) (A2U) (B1U) (EG)
                 (EG) (A1U) (B2U) (EU) (EU) (B1G) (EG) (EG) (EU)
                 (EU) (A2G) (A2G) (B1U) (A1G) (EG) (EG) (A2U) (A1U)
                 (B2G) (B1G) (A2G) (B2U) (EG) (EG) (EU) (EU) (A1G)
                 (EG) (EG) (A2U) (A1U) (A1U) (EU) (EU) (EG) (EG)
                 (B1G) (B1U) (B2G) (EU) (EU) (B1U) (B2U) (EU) (EU)
                 (EG) (EG) (A2U) (A2G) (EU) (EU) (B2U) (EG) (EG)
                 (A1G) (A1U) (B2G) (B1G) (B1U) (A1G) (EG) (EG)
                 (B1G) (EU) (EU) (A1G) (EU) (EU) (B2G) (A2G) (EG)
                 (EG) (EU) (EU) (A1G) (A2U) (B2U) (A2U) (A2G) (A2U)
                 (B2U) (EG) (EG) (B2G) (EU) (EU) (B1G) (A2U) (B1G)
                 (EU) (EU) (A1G) (EU) (EU) (A1G) (B2G) (A1U) (EU)
                 (EU) (A2G) (B1U) (EG) (EG) (B2G) (A2G) (EG) (EG)
                 (EU) (EU) (EU) (EU) (B2U) (B1G) (EG) (EG) (A1G)
                 (A2U) (B1G) (EU) (EU) (A2G) (EG) (EG) (A1U) (B2U)
                 (B1U) (EG) (EG) (A2U) (EU) (EU) (B2G) (A1G) (B2U)
                 (EG) (EG) (B1U) (B2U) (A2U) (EG) (EG) (EU) (EU)
                 (A1G) (A1U) (EG) (EG) (B2G) (B1U) (EG) (EG) (A2G)
                 (A2U) (EU) (EU) (A1U) (A1G) (B1G) (EU) (EU) (B1G)
                 (A1U) (B1G) (B2G) (A2U) (EG) (EG) (EG) (EG) (EU)
                 (EU) (B1U) (B2U) (EU) (EU) (B2G) (A1G) (A2G) (A1G)
                 (EU) (EU) (A2U) (EG) (EG) (EG) (EG) (A1U) (B1U)
                 (B2U) (B1U) (B1G) (EU) (EU) (B2U) (EG) (EG) (A2G)
                 (B1G) (A2U) (EG) (EG) (EU) (EU) (A1G) (A2U) (B1U)
                 (EG) (EG) (B2U) (A1U) (EU) (EU) (EG) (EG) (B2U)
                 (B2G) (A1U) (A2G) (EU) (EU) (B2G) (A2U) (EG) (EG)
                 (A2G) (B1G) (EU) (EU) (EG) (EG) (A1G) (B1U) (EU)
                 (EU) (B1G) (EU) (EU) (A1U) (A2G) (A1G) (EG) (EG)
                 (B2G) (B1U) (B2U) (A1U) (EG) (EG) (EU) (EU) (B2G)
                 (A2U) (A1U) (EG) (EG) (B1G) (B2G) (EU) (EU) (B2U)
                 (B1U) (EU) (EU) (A2G) (EG) (EG) (A2G) (A2U) (EG)
                 (EG) (B1U) (A2U) (A1G) (EU) (EU) (A1U) (A1G) (B1G)
                 (B2G) (EG) (EG) (B2U) (EU) (EU) (B1G) (A2G) (B1U)
                 (EG) (EG) (A1U) (B2G) (EU) (EU) (A1G) (EU) (EU)
                 (EG) (EG) (A2U) (B1U) (B2U) (A2G) (A2U) (EG) (EG)
                 (A1U) (B1G) (B1G) (EG) (EG) (EU) (EU) (B2U) (A1G)
                 (B1U) (EG) (EG) (A1U) (B2U) (B2U) (EG) (EG) (A1G)
                 (EU) (EU) (B2G) (A2G) (B1U) (A2U) (EU) (EU) (A2U)
                 (A1U) (B2G) (EG) (EG) (B2G) (EG) (EG) (B1U) (EU)
                 (EU) (EU) (EU) (B1G) (EG) (EG) (A2G) (A2G) (A1U)
                 (B1U) (EU) (EU) (A1G) (B1G) (A1G) (EU) (EU) (B2U)
                 (EG) (EG) (A2G) (A1U) (EU) (EU) (EG) (EG) (B2G)
                 (A2U) (B2G) (B1U) (A2G) (B2G) (A1U) (EG) (EG)
                 (EU) (EU) (A2U) (B2U) (A1G) (EU) (EU) (EG) (EG)
                 (B1U) (EG) (EG) (A1G) (EU) (EU) (B1G) (B2G) (A2U)
                 (B1U) (A1U) (EG) (EG) (A2U) (A1G) (B1U) (EG) (EG)
                 (B2U) (EU) (EU) (B1G) (A2U) (EU) (EU) (EU) (EU)
                 (A2G) (B2G) (B1G) (EG) (EG) (B2U) (A2G) (A1U)
                 (EG) (EG) (A1G) (EU) (EU) (B1G) (EG) (EG) (A2G)
                 (B2U) (EG) (EG) (EU) (EU) (A1U) (B1U) (B2U) (B2G)
                 (A2U) (B1G) (EU) (EU) (B2G) (B1U) (EG) (EG) (A2G)
                 (A1U) (B1U) (B2U) (EU) (EU) (B2G) (EG) (EG) (A1U)
                 (A1G) (EG) (EG) (EU) (EU) (B1U) (A2U) (A2G) (B1G)
                 (EG) (EG) (EU) (EU) (B2U) (A1U) (A1G) (EG) (EG)
                 (A2U) (A2G) (EU) (EU) (B2G) (EG) (EG) (B1U) (A1U)
                 (EU) (EU) (EG) (EG) (B1G) (A1G) (B2U) (B2G) (A2U)
                 (B1U) (A2G) (A1U) (EU) (EU) (EG) (EG) (A2G) (A1U)
                 (EU) (EU) (EG) (EG) (B2G) (B1U) (A1G) (A2U) (B2G)
                 (B1U) (B1G) (B2U) (EU) (EU) (EG) (EG) (EU) (EU)
                 (EG) (EG)
 The electronic state is 1-A1G.
 Alpha  occ. eigenvalues -- -346.00606-346.00601 -41.88773 -41.88766 -36.98486
 Alpha  occ. eigenvalues --  -36.98475 -36.97665 -36.97665 -36.97660 -36.97660
 Alpha  occ. eigenvalues --  -14.23309 -14.23309 -14.23307 -14.23306 -14.23303
 Alpha  occ. eigenvalues --  -14.23303 -14.23301 -14.23298 -14.22292 -14.22291
 Alpha  occ. eigenvalues --  -14.22291 -14.22291 -14.22288 -14.22287 -14.22287
 Alpha  occ. eigenvalues --  -14.22287 -10.20011 -10.20009 -10.20009 -10.20006
 Alpha  occ. eigenvalues --  -10.20005 -10.20002 -10.20002 -10.20001 -10.19997
 Alpha  occ. eigenvalues --  -10.19997 -10.19996 -10.19994 -10.19994 -10.19987
 Alpha  occ. eigenvalues --  -10.19987 -10.19984 -10.13061 -10.13060 -10.13060
 Alpha  occ. eigenvalues --  -10.13059 -10.13050 -10.13050 -10.13049 -10.13049
 Alpha  occ. eigenvalues --  -10.13049 -10.13048 -10.13048 -10.13046 -10.13034
 Alpha  occ. eigenvalues --  -10.13033 -10.13033 -10.13032 -10.12947 -10.12947
 Alpha  occ. eigenvalues --  -10.12947 -10.12947 -10.12926 -10.12926 -10.12926
 Alpha  occ. eigenvalues --  -10.12926 -10.12926 -10.12926 -10.12926 -10.12926
 Alpha  occ. eigenvalues --  -10.12914 -10.12914 -10.12914 -10.12914 -10.12807
 Alpha  occ. eigenvalues --  -10.12807 -10.12807 -10.12806 -10.12788 -10.12787
 Alpha  occ. eigenvalues --  -10.12787 -10.12787 -10.12786 -10.12786 -10.12786
 Alpha  occ. eigenvalues --  -10.12783 -10.12777 -10.12775 -10.12775 -10.12773
 Alpha  occ. eigenvalues --   -4.80765  -4.80764  -3.25473  -3.25470  -3.24081
 Alpha  occ. eigenvalues --   -3.24081  -3.24081  -3.24081  -1.14709  -1.14147
 Alpha  occ. eigenvalues --   -1.13185  -1.13185  -1.12648  -1.12648  -1.10360
 Alpha  occ. eigenvalues --   -1.09854  -1.07789  -1.07330  -1.03583  -1.03583
 Alpha  occ. eigenvalues --   -1.03159  -1.03159  -1.00514  -0.99986  -0.99407
 Alpha  occ. eigenvalues --   -0.99407  -0.99377  -0.99121  -0.98689  -0.98689
 Alpha  occ. eigenvalues --   -0.98646  -0.98577  -0.91042  -0.90385  -0.89848
 Alpha  occ. eigenvalues --   -0.89477  -0.89477  -0.89181  -0.89141  -0.89141
 Alpha  occ. eigenvalues --   -0.88936  -0.88840  -0.88840  -0.88774  -0.88460
 Alpha  occ. eigenvalues --   -0.88460  -0.88322  -0.88071  -0.85175  -0.84631
 Alpha  occ. eigenvalues --   -0.82412  -0.82412  -0.81966  -0.81966  -0.76935
 Alpha  occ. eigenvalues --   -0.76898  -0.76529  -0.76357  -0.76030  -0.76030
 Alpha  occ. eigenvalues --   -0.75490  -0.75490  -0.75187  -0.75077  -0.74665
 Alpha  occ. eigenvalues --   -0.74627  -0.72500  -0.72500  -0.72485  -0.72163
 Alpha  occ. eigenvalues --   -0.72003  -0.72003  -0.71273  -0.70798  -0.68926
 Alpha  occ. eigenvalues --   -0.68363  -0.67815  -0.67815  -0.67399  -0.67399
 Alpha  occ. eigenvalues --   -0.66562  -0.66230  -0.66230  -0.66174  -0.65907
 Alpha  occ. eigenvalues --   -0.65907  -0.62858  -0.62592  -0.62462  -0.62448
 Alpha  occ. eigenvalues --   -0.62416  -0.62259  -0.62252  -0.62020  -0.62019
 Alpha  occ. eigenvalues --   -0.61850  -0.61850  -0.60332  -0.60332  -0.60097
 Alpha  occ. eigenvalues --   -0.60097  -0.59901  -0.59901  -0.59043  -0.59043
 Alpha  occ. eigenvalues --   -0.58809  -0.58663  -0.58663  -0.58602  -0.58460
 Alpha  occ. eigenvalues --   -0.58460  -0.58016  -0.57952  -0.57813  -0.57776
 Alpha  occ. eigenvalues --   -0.57674  -0.57564  -0.57473  -0.57435  -0.56784
 Alpha  occ. eigenvalues --   -0.56251  -0.56084  -0.56084  -0.56012  -0.55848
 Alpha  occ. eigenvalues --   -0.55848  -0.55616  -0.55616  -0.55518  -0.54988
 Alpha  occ. eigenvalues --   -0.54766  -0.54766  -0.54622  -0.54429  -0.54429
 Alpha  occ. eigenvalues --   -0.53485  -0.53235  -0.53183  -0.53132  -0.53079
 Alpha  occ. eigenvalues --   -0.51762  -0.51460  -0.51376  -0.51376  -0.49462
 Alpha  occ. eigenvalues --   -0.49331  -0.48507  -0.48256  -0.48256  -0.48163
 Alpha  occ. eigenvalues --   -0.47918  -0.47918  -0.47598  -0.47598  -0.47431
 Alpha  occ. eigenvalues --   -0.47148  -0.47117  -0.47117  -0.46851  -0.46851
 Alpha  occ. eigenvalues --   -0.46768  -0.46702  -0.46353  -0.45490  -0.45490
 Alpha  occ. eigenvalues --   -0.45329  -0.45150  -0.45150  -0.45114  -0.45091
 Alpha  occ. eigenvalues --   -0.45091  -0.45023  -0.42126  -0.41580  -0.41526
 Alpha  occ. eigenvalues --   -0.41526  -0.40278  -0.39315  -0.39315  -0.38817
 Alpha  occ. eigenvalues --   -0.38817  -0.38306  -0.37947  -0.37634  -0.37634
 Alpha  occ. eigenvalues --   -0.37537  -0.37066  -0.36812  -0.36812  -0.36679
 Alpha  occ. eigenvalues --   -0.35850  -0.35640  -0.35378  -0.35360  -0.34317
 Alpha  occ. eigenvalues --   -0.33644  -0.33452  -0.33452  -0.32996  -0.32996
 Alpha  occ. eigenvalues --   -0.32835  -0.32022  -0.25472  -0.21742
 Alpha virt. eigenvalues --   -0.06853  -0.06853  -0.03656  -0.03656   0.01982
 Alpha virt. eigenvalues --    0.02878   0.03167   0.04072   0.04072   0.05385
 Alpha virt. eigenvalues --    0.06630   0.07520   0.08212   0.08212   0.09298
 Alpha virt. eigenvalues --    0.09709   0.09709   0.09787   0.10209   0.12056
 Alpha virt. eigenvalues --    0.12976   0.13049   0.13131   0.13197   0.13197
 Alpha virt. eigenvalues --    0.13548   0.13548   0.13855   0.14162   0.14975
 Alpha virt. eigenvalues --    0.16083   0.16083   0.16149   0.16845   0.17246
 Alpha virt. eigenvalues --    0.17246   0.17365   0.17536   0.17848   0.18101
 Alpha virt. eigenvalues --    0.19349   0.19349   0.19361   0.20252   0.20486
 Alpha virt. eigenvalues --    0.20486   0.20641   0.20641   0.21600   0.21865
 Alpha virt. eigenvalues --    0.22355   0.22683   0.23152   0.23204   0.23204
 Alpha virt. eigenvalues --    0.23234   0.23234   0.23621   0.23621   0.23664
 Alpha virt. eigenvalues --    0.23761   0.23761   0.24570   0.25930   0.26118
 Alpha virt. eigenvalues --    0.26764   0.27087   0.27118   0.27224   0.27224
 Alpha virt. eigenvalues --    0.27335   0.27635   0.27703   0.27703   0.28483
 Alpha virt. eigenvalues --    0.30498   0.30498   0.30610   0.30955   0.31090
 Alpha virt. eigenvalues --    0.31090   0.31421   0.31439   0.31611   0.31611
 Alpha virt. eigenvalues --    0.31708   0.32574   0.32574   0.33263   0.33646
 Alpha virt. eigenvalues --    0.33718   0.34111   0.34432   0.34432   0.35042
 Alpha virt. eigenvalues --    0.35042   0.35521   0.35561   0.35561   0.35587
 Alpha virt. eigenvalues --    0.35829   0.36266   0.36356   0.36356   0.36936
 Alpha virt. eigenvalues --    0.37168   0.37399   0.37411   0.37411   0.37466
 Alpha virt. eigenvalues --    0.37574   0.37787   0.37787   0.38097   0.38171
 Alpha virt. eigenvalues --    0.38171   0.38194   0.38930   0.38978   0.38978
 Alpha virt. eigenvalues --    0.39106   0.39409   0.40047   0.40047   0.40234
 Alpha virt. eigenvalues --    0.40599   0.40801   0.41074   0.41350   0.41350
 Alpha virt. eigenvalues --    0.41518   0.41665   0.41665   0.42440   0.43284
 Alpha virt. eigenvalues --    0.43284   0.43640   0.43684   0.44470   0.44601
 Alpha virt. eigenvalues --    0.44601   0.44713   0.44713   0.44993   0.45111
 Alpha virt. eigenvalues --    0.45118   0.45275   0.46145   0.46325   0.46325
 Alpha virt. eigenvalues --    0.46367   0.46367   0.46773   0.47318   0.47984
 Alpha virt. eigenvalues --    0.48071   0.48071   0.48174   0.48694   0.48939
 Alpha virt. eigenvalues --    0.49444   0.49444   0.49913   0.49913   0.50518
 Alpha virt. eigenvalues --    0.50840   0.51398   0.51790   0.51790   0.52158
 Alpha virt. eigenvalues --    0.52158   0.52238   0.52558   0.52659   0.52841
 Alpha virt. eigenvalues --    0.52841   0.52876   0.53298   0.53460   0.53460
 Alpha virt. eigenvalues --    0.53842   0.53861   0.53873   0.54200   0.54316
 Alpha virt. eigenvalues --    0.54316   0.54806   0.55393   0.55483   0.55483
 Alpha virt. eigenvalues --    0.55583   0.55686   0.55686   0.55688   0.55927
 Alpha virt. eigenvalues --    0.55973   0.56396   0.56396   0.56798   0.56798
 Alpha virt. eigenvalues --    0.57776   0.58094   0.58568   0.58568   0.58865
 Alpha virt. eigenvalues --    0.58983   0.59592   0.59592   0.59738   0.60193
 Alpha virt. eigenvalues --    0.60496   0.60496   0.60565   0.60657   0.61006
 Alpha virt. eigenvalues --    0.61291   0.61291   0.61467   0.61467   0.61868
 Alpha virt. eigenvalues --    0.62281   0.62393   0.62393   0.62628   0.62878
 Alpha virt. eigenvalues --    0.62882   0.63492   0.63820   0.64140   0.64140
 Alpha virt. eigenvalues --    0.64464   0.64464   0.65038   0.65038   0.65184
 Alpha virt. eigenvalues --    0.65552   0.66500   0.67130   0.67130   0.67591
 Alpha virt. eigenvalues --    0.67611   0.67972   0.67972   0.68783   0.68944
 Alpha virt. eigenvalues --    0.69097   0.69700   0.69700   0.70116   0.70460
 Alpha virt. eigenvalues --    0.70878   0.71184   0.71184   0.72497   0.72497
 Alpha virt. eigenvalues --    0.72882   0.72991   0.73469   0.73469   0.73481
 Alpha virt. eigenvalues --    0.73481   0.73558   0.74387   0.74424   0.74757
 Alpha virt. eigenvalues --    0.74973   0.75100   0.75181   0.75181   0.75349
 Alpha virt. eigenvalues --    0.75383   0.75383   0.76215   0.76309   0.76344
 Alpha virt. eigenvalues --    0.76344   0.76765   0.76906   0.76906   0.76940
 Alpha virt. eigenvalues --    0.77010   0.77207   0.77981   0.78062   0.78062
 Alpha virt. eigenvalues --    0.78752   0.78878   0.78884   0.78884   0.78959
 Alpha virt. eigenvalues --    0.79098   0.79098   0.79567   0.79606   0.79876
 Alpha virt. eigenvalues --    0.79876   0.80094   0.80235   0.80398   0.80398
 Alpha virt. eigenvalues --    0.80513   0.82105   0.82105   0.82182   0.82260
 Alpha virt. eigenvalues --    0.82260   0.82285   0.82313   0.82556   0.82556
 Alpha virt. eigenvalues --    0.82855   0.83059   0.83223   0.83486   0.83730
 Alpha virt. eigenvalues --    0.83846   0.84289   0.84289   0.84564   0.84564
 Alpha virt. eigenvalues --    0.84962   0.84962   0.85295   0.85580   0.85580
 Alpha virt. eigenvalues --    0.85737   0.85793   0.85938   0.86764   0.86764
 Alpha virt. eigenvalues --    0.86770   0.87121   0.87422   0.87422   0.87522
 Alpha virt. eigenvalues --    0.87642   0.87642   0.88324   0.89274   0.89772
 Alpha virt. eigenvalues --    0.89869   0.89869   0.89880   0.90271   0.90441
 Alpha virt. eigenvalues --    0.90484   0.90521   0.90521   0.90688   0.90693
 Alpha virt. eigenvalues --    0.90693   0.90807   0.91005   0.91005   0.91189
 Alpha virt. eigenvalues --    0.92403   0.92858   0.92915   0.93310   0.93310
 Alpha virt. eigenvalues --    0.93354   0.93354   0.94453   0.94497   0.97132
 Alpha virt. eigenvalues --    0.97166   0.98110   0.98110   0.98327   0.98809
 Alpha virt. eigenvalues --    0.99109   0.99134   0.99134   1.00008   1.00008
 Alpha virt. eigenvalues --    1.00535   1.00535   1.01261   1.02581   1.02639
 Alpha virt. eigenvalues --    1.02639   1.02838   1.03519   1.03628   1.03628
 Alpha virt. eigenvalues --    1.03736   1.03948   1.04049   1.04630   1.04630
 Alpha virt. eigenvalues --    1.05024   1.05191   1.05569   1.05792   1.05792
 Alpha virt. eigenvalues --    1.06919   1.06919   1.07365   1.07477   1.07968
 Alpha virt. eigenvalues --    1.08112   1.08112   1.08479   1.08676   1.08968
[...]
 Alpha virt. eigenvalues --    3.07267   3.07267   3.07602   3.07780   3.07923
 Alpha virt. eigenvalues --    3.07923   3.08382   3.08382   3.09106   3.09106
 Alpha virt. eigenvalues --    3.09201   3.09311   3.09489   3.10068   3.10399
 Alpha virt. eigenvalues --    3.10399   3.10720   3.11184   3.11184   3.11255
 Alpha virt. eigenvalues --    3.12077   3.13234   3.13416   3.13416   3.13645
 Alpha virt. eigenvalues --    3.13645   3.13696   3.14603   3.14618   3.15468
 Alpha virt. eigenvalues --    3.15468   3.16204   3.16498   3.16498   3.16937
 Alpha virt. eigenvalues --    3.17543   3.17543   3.17563   3.17760   3.17781
 Alpha virt. eigenvalues --    3.17811   3.19250   3.19250   3.19323   3.19323
 Alpha virt. eigenvalues --    3.19325   3.20093   3.20314   3.20513   3.20547
 Alpha virt. eigenvalues --    3.20633   3.20770   3.20920   3.20930   3.20930
 Alpha virt. eigenvalues --    3.21518   3.21643   3.21643   3.21742   3.21742
 Alpha virt. eigenvalues --    3.22131   3.22222   3.23706   3.23706   3.24240
 Alpha virt. eigenvalues --    3.24306   3.24306   3.25739   3.25739   3.25778
 Alpha virt. eigenvalues --    3.25925   3.26393   3.26623   3.26641   3.26814
 Alpha virt. eigenvalues --    3.27071   3.27434   3.27434   3.27798   3.27798
 Alpha virt. eigenvalues --    3.27957   3.27957   3.28558   3.28600   3.29201
 Alpha virt. eigenvalues --    3.29829   3.29865   3.29865   3.30187   3.30187
 Alpha virt. eigenvalues --    3.30239   3.30560   3.31888   3.32147   3.32473
 Alpha virt. eigenvalues --    3.32473   3.32977   3.32977   3.33515   3.33554
 Alpha virt. eigenvalues --    3.33809   3.33809   3.33939   3.34501   3.34881
 Alpha virt. eigenvalues --    3.35739   3.36221   3.36221   3.36225   3.36225
 Alpha virt. eigenvalues --    3.36265   3.36279   3.36610   3.36903   3.36914
 Alpha virt. eigenvalues --    3.36914   3.37109   3.37697   3.38333   3.38351
 Alpha virt. eigenvalues --    3.38351   3.38610   3.38610   3.38630   3.39094
 Alpha virt. eigenvalues --    3.39115   3.39115   3.39136   3.39164   3.40274
 Alpha virt. eigenvalues --    3.40510   3.40587   3.41696   3.41747   3.42246
 Alpha virt. eigenvalues --    3.42317   3.42317   3.42353   3.42353   3.42401
 Alpha virt. eigenvalues --    3.43320   3.43672   3.43672   3.43838   3.43838
 Alpha virt. eigenvalues --    3.44253   3.44464   3.44654   3.45537   3.45707
 Alpha virt. eigenvalues --    3.45707   3.46393   3.46393   3.46681   3.46681
 Alpha virt. eigenvalues --    3.47423   3.47590   3.47590   3.47754   3.47756
 Alpha virt. eigenvalues --    3.47898   3.48294   3.48294   3.48788   3.48978
 Alpha virt. eigenvalues --    3.49375   3.49512   3.49512   3.50495   3.50818
 Alpha virt. eigenvalues --    3.51530   3.52273   3.52273   3.52302   3.52955
 Alpha virt. eigenvalues --    3.52955   3.52967   3.53024   3.53086   3.53214
 Alpha virt. eigenvalues --    3.53214   3.53251   3.53639   3.53691   3.53691
 Alpha virt. eigenvalues --    3.54067   3.54313   3.54752   3.54752   3.54824
 Alpha virt. eigenvalues --    3.55113   3.55435   3.55435   3.56225   3.57636
 Alpha virt. eigenvalues --    3.57636   3.58253   3.58440   3.58558   3.58631
 Alpha virt. eigenvalues --    3.59673   3.59673   3.61363   3.61613   3.61613
 Alpha virt. eigenvalues --    3.61910   3.62162   3.62162   3.62356   3.62356
 Alpha virt. eigenvalues --    3.62448   3.63763   3.63763   3.63896   3.64234
 Alpha virt. eigenvalues --    3.64327   3.64364   3.64619   3.64619   3.65260
 Alpha virt. eigenvalues --    3.65352   3.65352   3.65439   3.65668   3.65903
 Alpha virt. eigenvalues --    3.66729   3.67282   3.67452   3.67452   3.67975
 Alpha virt. eigenvalues --    3.68254   3.68254   3.68752   3.69350   3.69398
 Alpha virt. eigenvalues --    3.69750   3.69750   3.69961   3.70159   3.70159
 Alpha virt. eigenvalues --    3.70557   3.70557   3.70653   3.70653   3.70697
 Alpha virt. eigenvalues --    3.71103   3.71622   3.72274   3.72856   3.73445
 Alpha virt. eigenvalues --    3.74041   3.74626   3.74748   3.74748   3.74904
 Alpha virt. eigenvalues --    3.74987   3.75809   3.75809   3.77422   3.77959
 Alpha virt. eigenvalues --    3.78375   3.78465   3.78465   3.79131   3.79131
 Alpha virt. eigenvalues --    3.79192   3.79192   3.79500   3.79767   3.79767
 Alpha virt. eigenvalues --    3.79997   3.81722   3.81722   3.82457   3.82524
 Alpha virt. eigenvalues --    3.82923   3.83088   3.83701   3.83701   3.84082
 Alpha virt. eigenvalues --    3.85018   3.85054   3.86678   3.86678   3.87190
 Alpha virt. eigenvalues --    3.87190   3.87377   3.87449   3.87449   3.88543
 Alpha virt. eigenvalues --    3.88580   3.88580   3.88923   3.88937   3.88937
 Alpha virt. eigenvalues --    3.89259   3.89378   3.90266   3.90466   3.91121
 Alpha virt. eigenvalues --    3.91559   3.92343   3.94034   3.96006   3.96006
 Alpha virt. eigenvalues --    3.96729   3.98810   3.98810   4.00408   4.00408
 Alpha virt. eigenvalues --    4.01029   4.02314   4.02314   4.02836   4.03856
 Alpha virt. eigenvalues --    4.04071   4.04752   4.05077   4.05077   4.05137
 Alpha virt. eigenvalues --    4.05664   4.05716   4.05716   4.06796   4.07339
 Alpha virt. eigenvalues --    4.08715   4.08715   4.09697   4.10969   4.11009
 Alpha virt. eigenvalues --    4.11371   4.11403   4.11403   4.12114   4.12114
 Alpha virt. eigenvalues --    4.12654   4.13096   4.13096   4.14366   4.14366
 Alpha virt. eigenvalues --    4.14881   4.15930   4.16504   4.16539   4.16623
 Alpha virt. eigenvalues --    4.16623   4.19169   4.20047   4.20268   4.20281
 Alpha virt. eigenvalues --    4.24891   4.24891   4.25428   4.25428   4.26200
 Alpha virt. eigenvalues --    4.27395   4.28025   4.28025   4.29642   4.30206
 Alpha virt. eigenvalues --    4.31768   4.32110   4.32110   4.32684   4.34425
 Alpha virt. eigenvalues --    4.34425   4.37108   4.37204   4.38004   4.38711
 Alpha virt. eigenvalues --    4.38711   4.39459   4.39459   4.40014   4.40551
 Alpha virt. eigenvalues --    4.41500   4.41852   4.43395   4.43977   4.43977
 Alpha virt. eigenvalues --    4.44882   4.44997   4.44997   4.45759   4.46022
 Alpha virt. eigenvalues --    4.47562   4.47562   4.49639   4.50339   4.52102
 Alpha virt. eigenvalues --    4.52102   4.52357   4.53512   4.53512   4.53905
 Alpha virt. eigenvalues --    4.54901   4.62594   4.63889   4.63889   4.66342
 Alpha virt. eigenvalues --    4.66766   4.66766   4.67599   4.69480   4.69927
 Alpha virt. eigenvalues --    4.70596   4.74501   4.78813   4.78813   4.79067
 Alpha virt. eigenvalues --    4.84725   4.85004   4.85004   4.85044   4.86215
 Alpha virt. eigenvalues --    4.86215   4.87476   4.87797   4.92178   4.92186
 Alpha virt. eigenvalues --    4.92186   4.92730   4.94912   4.94912   4.97584
 Alpha virt. eigenvalues --    4.99395   4.99395   4.99406   4.99550   5.01709
 Alpha virt. eigenvalues --    5.03646   5.07156   5.07156   5.08067   5.09063
 Alpha virt. eigenvalues --    5.10050   5.10050   5.10567   5.10811   5.10984
 Alpha virt. eigenvalues --    5.11679   5.11679   5.13838   5.14741   5.14777
 Alpha virt. eigenvalues --    5.14777   5.16118   5.16447   5.19382   5.19998
 Alpha virt. eigenvalues --    5.19998   5.21991   5.21991   5.22673   5.22673
 Alpha virt. eigenvalues --    5.26235   5.26678   5.26678   5.29008   5.33696
 Alpha virt. eigenvalues --    5.35775   5.36028   5.36028   5.36322   5.40796
 Alpha virt. eigenvalues --    5.40796   5.41791   5.43830   5.43998   5.43998
 Alpha virt. eigenvalues --    5.47438   5.47438   5.47544   5.49084   5.49164
 Alpha virt. eigenvalues --    5.49164   5.49748   5.52352   5.52352   5.53306
 Alpha virt. eigenvalues --    5.59661   5.61938   5.70237   5.70250   5.70250
 Alpha virt. eigenvalues --    5.70540   5.71826   5.75799   5.75799   5.77029
 Alpha virt. eigenvalues --    5.98354   6.00648   6.01168   6.04113   6.13267
 Alpha virt. eigenvalues --    6.17091   6.61410   6.61796   6.62219   6.62309
 Alpha virt. eigenvalues --    6.63207   6.63444   6.64635   6.64635   6.64963
 Alpha virt. eigenvalues --    6.64963   6.77979   6.77979   6.79844   6.79844
 Alpha virt. eigenvalues --   21.69985  21.79098  21.79098  21.82532  21.95694
 Alpha virt. eigenvalues --   22.03160  22.05043  22.05043  22.05181  22.05181
 Alpha virt. eigenvalues --   22.05918  22.13582  22.21277  22.22339  22.23263
 Alpha virt. eigenvalues --   22.24798  22.24798  22.26588  22.26716  22.26716
 Alpha virt. eigenvalues --   22.28813  22.28813  22.31079  22.31161  22.31161
 Alpha virt. eigenvalues --   22.31677  22.32556  22.33336  22.33471  22.37079
 Alpha virt. eigenvalues --   22.37079  22.44375  22.49213  22.51629  22.51629
 Alpha virt. eigenvalues --   22.51865  22.57548  22.57548  22.59007  22.59259
 Alpha virt. eigenvalues --   22.60564  22.60904  22.60904  22.63013  22.66833
 Alpha virt. eigenvalues --   22.67971  22.71547  22.71659  22.71659  22.75070
 Alpha virt. eigenvalues --   22.75070  22.79065  22.81411  22.85352  22.85352
 Alpha virt. eigenvalues --   22.91039  23.34149  23.36734  23.36734  23.37025
 Alpha virt. eigenvalues --   23.37025  23.37553  23.38603  23.43366  32.17138
 Alpha virt. eigenvalues --   32.17138  32.22744  32.27461  32.31951  32.31951
 Alpha virt. eigenvalues --   32.54809  32.58049  32.59787  32.60066  32.60066
 Alpha virt. eigenvalues --   32.67287  32.70324  32.70324  32.71798  32.80781
          Condensed to atoms (all electrons):
 Mulliken charges:
               1
     1  C   -0.086498
     2  C   -0.086498
     3  C   -0.228416
     4  C    0.107253
     5  C    0.107253
     6  C   -0.228416
     7  C    0.394949
     8  C    0.394949
     9  N   -0.297295
    10  N   -0.573382
    11  N   -0.573382
    12  H    0.122068
    13  H    0.122068
    14  H    0.137103
    15  H    0.137103
    16  C   -0.086498
    17  C   -0.086498
    18  C   -0.228416
    19  C    0.107253
    20  C    0.107253
    21  C   -0.228416
    22  C    0.394949
    23  C    0.394949
    24  N   -0.297295
    25  N   -0.573382
    26  H    0.122068
    27  H    0.122068
    28  H    0.137103
    29  H    0.137103
    30  C   -0.086498
    31  C   -0.086498
    32  C   -0.228416
    33  C    0.107253
    34  C    0.107253
    35  C   -0.228416
    36  C    0.394949
    37  C    0.394949
    38  N   -0.297295
    39  N   -0.573382
    40  H    0.122068
    41  H    0.122068
    42  H    0.137103
    43  H    0.137103
    44  C   -0.086498
    45  C   -0.086498
    46  C   -0.228416
    47  C    0.107253
    48  C    0.107253
    49  C   -0.228416
    50  C    0.394949
    51  C    0.394949
    52  N   -0.297295
    53  H    0.122068
    54  H    0.122068
    55  H    0.137103
    56  H    0.137103
    57  Zn  -0.088966
    58  C   -0.086498
    59  C   -0.086498
    60  C   -0.228416
    61  C    0.107253
    62  C    0.107253
    63  C   -0.228416
    64  C    0.394949
    65  C    0.394949
    66  N   -0.297295
    67  N   -0.573382
    68  N   -0.573382
    69  H    0.122068
    70  H    0.122068
    71  H    0.137103
    72  H    0.137103
    73  C   -0.086498
    74  C   -0.086498
    75  C   -0.228416
    76  C    0.107253
    77  C    0.107253
    78  C   -0.228416
    79  C    0.394949
    80  C    0.394949
    81  N   -0.297295
    82  N   -0.573382
    83  H    0.122068
    84  H    0.122068
    85  H    0.137103
    86  H    0.137103
    87  C   -0.086498
    88  C   -0.086498
    89  C   -0.228416
    90  C    0.107253
    91  C    0.107253
    92  C   -0.228416
    93  C    0.394949
    94  C    0.394949
    95  N   -0.297295
    96  N   -0.573382
    97  H    0.122068
    98  H    0.122068
    99  H    0.137103
   100  H    0.137103
   101  C   -0.086498
   102  C   -0.086498
   103  C   -0.228416
   104  C    0.107253
   105  C    0.107253
   106  C   -0.228416
   107  C    0.394949
   108  C    0.394949
   109  N   -0.297295
   110  H    0.122068
   111  H    0.122068
   112  H    0.137103
   113  H    0.137103
   114  Zn  -0.088966
 Sum of Mulliken charges =  -0.00000
 Mulliken charges with hydrogens summed into heavy atoms:
               1
     1  C    0.035570
     2  C    0.035570
     3  C   -0.091313
     4  C    0.107253
     5  C    0.107253
     6  C   -0.091313
     7  C    0.394949
     8  C    0.394949
     9  N   -0.297295
    10  N   -0.573382
    11  N   -0.573382
    16  C    0.035570
    17  C    0.035570
    18  C   -0.091313
    19  C    0.107253
    20  C    0.107253
    21  C   -0.091313
    22  C    0.394949
    23  C    0.394949
    24  N   -0.297295
    25  N   -0.573382
    30  C    0.035570
    31  C    0.035570
    32  C   -0.091313
    33  C    0.107253
    34  C    0.107253
    35  C   -0.091313
    36  C    0.394949
    37  C    0.394949
    38  N   -0.297295
    39  N   -0.573382
    44  C    0.035570
    45  C    0.035570
    46  C   -0.091313
    47  C    0.107253
    48  C    0.107253
    49  C   -0.091313
    50  C    0.394949
    51  C    0.394949
    52  N   -0.297295
    57  Zn  -0.088966
    58  C    0.035570
    59  C    0.035570
    60  C   -0.091313
    61  C    0.107253
    62  C    0.107253
    63  C   -0.091313
    64  C    0.394949
    65  C    0.394949
    66  N   -0.297295
    67  N   -0.573382
    68  N   -0.573382
    73  C    0.035570
    74  C    0.035570
    75  C   -0.091313
    76  C    0.107253
    77  C    0.107253
    78  C   -0.091313
    79  C    0.394949
    80  C    0.394949
    81  N   -0.297295
    82  N   -0.573382
    87  C    0.035570
    88  C    0.035570
    89  C   -0.091313
    90  C    0.107253
    91  C    0.107253
    92  C   -0.091313
    93  C    0.394949
    94  C    0.394949
    95  N   -0.297295
    96  N   -0.573382
   101  C    0.035570
   102  C    0.035570
   103  C   -0.091313
   104  C    0.107253
   105  C    0.107253
   106  C   -0.091313
   107  C    0.394949
   108  C    0.394949
   109  N   -0.297295
   114  Zn  -0.088966
 Electronic spatial extent (au):  <R**2>=          49744.3443
 Charge=             -0.0000 electrons
 Dipole moment (field-independent basis, Debye):
    X=              0.0000    Y=              0.0000    Z=             -0.0000  Tot=              0.0000
 Quadrupole moment (field-independent basis, Debye-Ang):
   XX=           -420.7361   YY=           -420.7361   ZZ=           -503.3302
   XY=              0.0000   XZ=              0.0000   YZ=             -0.0000
 Traceless Quadrupole moment (field-independent basis, Debye-Ang):
   XX=             27.5314   YY=             27.5314   ZZ=            -55.0627
   XY=              0.0000   XZ=              0.0000   YZ=             -0.0000
 Octapole moment (field-independent basis, Debye-Ang**2):
  XXX=              0.0000  YYY=             -0.0000  ZZZ=              0.0000  XYY=              0.0000
  XXY=             -0.0000  XXZ=             -0.0000  XZZ=              0.0000  YZZ=              0.0000
  YYZ=             -0.0000  XYZ=              0.0000
 Hexadecapole moment (field-independent basis, Debye-Ang**3):
 XXXX=         -26831.4917 YYYY=         -26831.4917 ZZZZ=          -8733.4217 XXXY=             -0.0000
 XXXZ=              0.0000 YYYX=              0.0000 YYYZ=             -0.0000 ZZZX=              0.0000
 ZZZY=             -0.0000 XXYY=          -9656.2260 XXZZ=          -7032.3406 YYZZ=          -7032.3406
 XXYZ=             -0.0000 YYXZ=              0.0000 ZZXY=             -0.0000
 N-N= 1.772101316760D+04 E-N=-5.170956956869D+04  KE= 6.866984346283D+03
 Symmetry AG   KE= 1.785169276828D+03
 Symmetry B1G  KE= 3.794215829937D+02
 Symmetry B2G  KE= 6.342342067784D+02
 Symmetry B3G  KE= 6.342342067784D+02
 Symmetry AU   KE= 3.817011427922D+02
 Symmetry B1U  KE= 1.789739296956D+03
 Symmetry B2U  KE= 6.312423165780D+02
 Symmetry B3U  KE= 6.312423165780D+02
 Leave Link  601 at Wed Dec 18 22:35:36 2024, MaxMem=  8053063680 cpu:       187.4
 (Enter /opt/g09/l9999.exe)

 Test job not archived.
 1\1\ WCSS.PL-BEM-CMOKC406W\SP\RLC-BLYP TD-FC\Gen\C64H32N16Zn2\SERGEY\1
 8-Dec-2024\0\\#p td(nstates=40) lc-blyp/gen iop(3/107=0400000000, 3/10
 8=0400000000) geom=check guess=read\\ZnPc dimer lc-blyp(mu=0.4)/def2-t
 zvp(-f), monomer geom b3pw/631dp\\0,1\C,0,0.70282505,6.55507353,0.\C,0
 ,-0.70282505,6.55507353,0.\C,0,1.42385811,5.3647644,0.\C,0,0.70355705,
 4.17204132,0.\C,0,-0.70355705,4.17204132,0.\C,0,-1.42385811,5.3647644,
 0.\C,0,1.11636308,2.77432121,0.\C,0,-1.11636308,2.77432121,0.\N,0,0.,1
 .98231715,0.\N,0,-2.38508318,2.38508318,0.\N,0,2.38508318,2.38508318,0
 .\H,0,1.23253009,7.5037036,0.\H,0,-1.23253009,7.5037036,0.\H,0,2.50917
 419,5.35528741,0.\H,0,-2.50917419,5.35528741,0.\C,0,6.55507353,-0.7028
 2505,0.\C,0,6.55507353,0.70282505,0.\C,0,5.3647644,-1.42385811,0.\C,0,
 4.17204132,-0.70355705,0.\C,0,4.17204132,0.70355705,0.\C,0,5.3647644,1
 .42385811,0.\C,0,2.77432121,-1.11636308,0.\C,0,2.77432121,1.11636308,0
 .\N,0,1.98231715,0.,0.\N,0,2.38508318,-2.38508318,0.\H,0,7.5037036,-1.
 23253009,0.\H,0,7.5037036,1.23253009,0.\H,0,5.35528741,-2.50917419,0.\
 H,0,5.35528741,2.50917419,0.\C,0,-6.55507353,0.70282505,0.\C,0,-6.5550
 7353,-0.70282505,0.\C,0,-5.3647644,1.42385811,0.\C,0,-4.17204132,0.703
 55705,0.\C,0,-4.17204132,-0.70355705,0.\C,0,-5.3647644,-1.42385811,0.\
 C,0,-2.77432121,1.11636308,0.\C,0,-2.77432121,-1.11636308,0.\N,0,-1.98
 231715,0.,0.\N,0,-2.38508318,-2.38508318,0.\H,0,-7.5037036,1.23253009,
 0.\H,0,-7.5037036,-1.23253009,0.\H,0,-5.35528741,2.50917419,0.\H,0,-5.
 35528741,-2.50917419,0.\C,0,-0.70282505,-6.55507353,0.\C,0,0.70282505,
 -6.55507353,0.\C,0,-1.42385811,-5.3647644,0.\C,0,-0.70355705,-4.172041
 32,0.\C,0,0.70355705,-4.17204132,0.\C,0,1.42385811,-5.3647644,0.\C,0,-
 1.11636308,-2.77432121,0.\C,0,1.11636308,-2.77432121,0.\N,0,0.,-1.9823
 1715,0.\H,0,-1.23253009,-7.5037036,0.\H,0,1.23253009,-7.5037036,0.\H,0
 ,-2.50917419,-5.35528741,0.\H,0,2.50917419,-5.35528741,0.\Zn,0,0.,0.,0
 .\C,0,0.70282505,6.55507353,3.3\C,0,-0.70282505,6.55507353,3.3\C,0,1.4
 2385811,5.3647644,3.3\C,0,0.70355705,4.17204132,3.3\C,0,-0.70355705,4.
 17204132,3.3\C,0,-1.42385811,5.3647644,3.3\C,0,1.11636308,2.77432121,3
 .3\C,0,-1.11636308,2.77432121,3.3\N,0,0.,1.98231715,3.3\N,0,-2.3850831
 8,2.38508318,3.3\N,0,2.38508318,2.38508318,3.3\H,0,1.23253009,7.503703
 6,3.3\H,0,-1.23253009,7.5037036,3.3\H,0,2.50917419,5.35528741,3.3\H,0,
 -2.50917419,5.35528741,3.3\C,0,6.55507353,-0.70282505,3.3\C,0,6.555073
 53,0.70282505,3.3\C,0,5.3647644,-1.42385811,3.3\C,0,4.17204132,-0.7035
 5705,3.3\C,0,4.17204132,0.70355705,3.3\C,0,5.3647644,1.42385811,3.3\C,
 0,2.77432121,-1.11636308,3.3\C,0,2.77432121,1.11636308,3.3\N,0,1.98231
 715,0.,3.3\N,0,2.38508318,-2.38508318,3.3\H,0,7.5037036,-1.23253009,3.
 3\H,0,7.5037036,1.23253009,3.3\H,0,5.35528741,-2.50917419,3.3\H,0,5.35
 528741,2.50917419,3.3\C,0,-6.55507353,0.70282505,3.3\C,0,-6.55507353,-
 0.70282505,3.3\C,0,-5.3647644,1.42385811,3.3\C,0,-4.17204132,0.7035570
 5,3.3\C,0,-4.17204132,-0.70355705,3.3\C,0,-5.3647644,-1.42385811,3.3\C
 ,0,-2.77432121,1.11636308,3.3\C,0,-2.77432121,-1.11636308,3.3\N,0,-1.9
 8231715,0.,3.3\N,0,-2.38508318,-2.38508318,3.3\H,0,-7.5037036,1.232530
 09,3.3\H,0,-7.5037036,-1.23253009,3.3\H,0,-5.35528741,2.50917419,3.3\H
 ,0,-5.35528741,-2.50917419,3.3\C,0,-0.70282505,-6.55507353,3.3\C,0,0.7
 0282505,-6.55507353,3.3\C,0,-1.42385811,-5.3647644,3.3\C,0,-0.70355705
 ,-4.17204132,3.3\C,0,0.70355705,-4.17204132,3.3\C,0,1.42385811,-5.3647
 644,3.3\C,0,-1.11636308,-2.77432121,3.3\C,0,1.11636308,-2.77432121,3.3
 \N,0,0.,-1.98231715,3.3\H,0,-1.23253009,-7.5037036,3.3\H,0,1.23253009,
 -7.5037036,3.3\H,0,-2.50917419,-5.35528741,3.3\H,0,2.50917419,-5.35528
 741,3.3\Zn,0,0.,0.,3.3\\Version=ES64L-G09RevE.01\State=1-A1G\HF=-6884.
 673681\RMSD=8.861e-09\PG=D04H [C4(Zn1.Zn1),2SGV(N4),2SGD(N4),X(C64H32)
 ]\\@


 Money is a good servant but a bad master.
                        -- French Proverb
 Job cpu time:       1 days 20 hours 27 minutes 41.2 seconds.
 File lengths (MBytes):  RWF=  59902 Int=      0 D2E=      0 Chk=   7707 Scr=      1
 Normal termination of Gaussian 09 at Wed Dec 18 22:35:41 2024.
