 Entering Gaussian System, Link 0=g09
 Input=ZnPc-Im1.gjf
 Output=ZnPc-Im1.log
 Initial command:
 /home/sergey/g09/l1.exe "/home/sergey/SCRATCH/Gau-32392.inp" -scrdir="/home/sergey/SCRATCH/"
 Entering Link 1 = /home/sergey/g09/l1.exe PID=     32393.
  
 Copyright (c) 1988,1990,1992,1993,1995,1998,2003,2009,2015,
            Gaussian, Inc.  All Rights Reserved.
  
 This is part of the Gaussian(R) 09 program.  It is based on
 the Gaussian(R) 03 system (copyright 2003, Gaussian, Inc.),
 the Gaussian(R) 98 system (copyright 1998, Gaussian, Inc.),
 the Gaussian(R) 94 system (copyright 1995, Gaussian, Inc.),
 the Gaussian 92(TM) system (copyright 1992, Gaussian, Inc.),
 the Gaussian 90(TM) system (copyright 1990, Gaussian, Inc.),
 the Gaussian 88(TM) system (copyright 1988, Gaussian, Inc.),
 the Gaussian 86(TM) system (copyright 1986, Carnegie Mellon
 University), and the Gaussian 82(TM) system (copyright 1983,
 Carnegie Mellon University). Gaussian is a federally registered
 trademark of Gaussian, Inc.
  
 This software contains proprietary and confidential information,
 including trade secrets, belonging to Gaussian, Inc.
  
 This software is provided under written license and may be
 used, copied, transmitted, or stored only in accord with that
 written license.
  
 The following legend is applicable only to US Government
 contracts under FAR:
  
                    RESTRICTED RIGHTS LEGEND
  
 Use, reproduction and disclosure by the US Government is
 subject to restrictions as set forth in subparagraphs (a)
 and (c) of the Commercial Computer Software - Restricted
 Rights clause in FAR 52.227-19.
  
 Gaussian, Inc.
 340 Quinnipiac St., Bldg. 40, Wallingford CT 06492
  
  
 ---------------------------------------------------------------
 Warning -- This program may not be used in any manner that
 competes with the business of Gaussian, Inc. or will provide
 assistance to any competitor of Gaussian, Inc.  The licensee
 of this program is prohibited from giving any competitor of
 Gaussian, Inc. access to this program.  By using this program,
 the user acknowledges that Gaussian, Inc. is engaged in the
 business of creating and licensing software in the field of
 computational chemistry and represents and warrants to the
 licensee that it is not a competitor of Gaussian, Inc. and that
 it will not use this program in any manner prohibited above.
 ---------------------------------------------------------------
  

 Cite this work as:
 Gaussian 09, Revision E.01,
 M. J. Frisch, G. W. Trucks, H. B. Schlegel, G. E. Scuseria, 
 M. A. Robb, J. R. Cheeseman, G. Scalmani, V. Barone, B. Mennucci, 
 G. A. Petersson, H. Nakatsuji, M. Caricato, X. Li, H. P. Hratchian, 
 A. F. Izmaylov, J. Bloino, G. Zheng, J. L. Sonnenberg, M. Hada, 
 M. Ehara, K. Toyota, R. Fukuda, J. Hasegawa, M. Ishida, T. Nakajima, 
 Y. Honda, O. Kitao, H. Nakai, T. Vreven, J. A. Montgomery, Jr., 
 J. E. Peralta, F. Ogliaro, M. Bearpark, J. J. Heyd, E. Brothers, 
 K. N. Kudin, V. N. Staroverov, T. Keith, R. Kobayashi, J. Normand, 
 K. Raghavachari, A. Rendell, J. C. Burant, S. S. Iyengar, J. Tomasi, 
 M. Cossi, N. Rega, J. M. Millam, M. Klene, J. E. Knox, J. B. Cross, 
 V. Bakken, C. Adamo, J. Jaramillo, R. Gomperts, R. E. Stratmann, 
 O. Yazyev, A. J. Austin, R. Cammi, C. Pomelli, J. W. Ochterski, 
 R. L. Martin, K. Morokuma, V. G. Zakrzewski, G. A. Voth, 
 P. Salvador, J. J. Dannenberg, S. Dapprich, A. D. Daniels, 
 O. Farkas, J. B. Foresman, J. V. Ortiz, J. Cioslowski, 
 and D. J. Fox, Gaussian, Inc., Wallingford CT, 2013.
 
 ******************************************
 Gaussian 09:  ES64L-G09RevE.01 30-Nov-2015
                20-May-2025 
 ******************************************
 %chk=ZnPc-Im1.chk
 %nproc=6
 Will use up to    6 processors via shared memory.
 %mem=32GB
 Default route:  MaxDisk=477GB
 ----------------------------------------------------------------------
 #p lc-blyp/def2svp geom=check guess=read iop(3/107=0400000000, 3/108=0
 400000000)
 ----------------------------------------------------------------------
 1/29=2,38=1/1;
 2/12=2,40=1/2;
 3/5=43,7=101,11=2,14=-4,16=1,25=1,30=1,74=1000402,107=400000000,108=400000000,116=-2/1,2,3;
 4/5=1/1;
 5/5=2,38=6/2;
 6/7=2,8=2,9=2,10=2,28=1/1;
 99/5=1,9=1/99;
 Leave Link    1 at Tue May 20 15:23:45 2025, MaxMem=  4294967296 cpu:         0.1
 (Enter /home/sergey/g09/l101.exe)
 ---------------
 geom b3pw/631gd
 ---------------
 Structure from the checkpoint file:  "ZnPc-Im1.chk"
 Charge =  0 Multiplicity = 1
 Redundant internal coordinates found in file.
 C,0,7.0903836725,-1.3648874014,-4.9837199369
 C,0,6.8299152775,-1.4431120346,-6.3624402592
 C,0,6.0875626865,-1.0243427778,-4.0790544109
 C,0,4.8154766909,-0.7712582227,-4.5865113741
 C,0,4.5550695325,-0.8496352973,-5.965758669
 C,0,5.5596146671,-1.1829695832,-6.8709898439
 C,0,3.5557183113,-0.3858582519,-3.9559753942
 C,0,3.1434138343,-0.5140562777,-6.1330595599
 N,0,2.5910264685,-0.2583915487,-4.9144723487
 N,0,2.5530417831,-0.4546208062,-7.3236857491
 N,0,3.4369932861,-0.1696790135,-2.6521891705
 H,0,8.093958877,-1.5718944998,-4.6204360704
 H,0,7.6365769492,-1.7088137267,-7.0411327949
 H,0,6.2821980414,-0.9562343689,-3.0126879783
 H,0,5.3504482145,-1.2349160835,-7.9354982953
 C,0,1.4255828098,1.4116095066,1.8663690959
 C,0,2.7217828262,0.8904820168,1.656873236
 C,0,0.5293438445,1.5435487236,0.8008564413
 C,0,0.9477518453,1.1266232057,-0.4580758023
 C,0,2.2417760441,0.6141650766,-0.6635097869
 C,0,3.1433027747,0.496256073,0.3920808011
 C,0,0.2722809456,1.0684298871,-1.7485459969
 C,0,2.3245440392,0.2782775806,-2.0803318758
 N,0,1.1233782032,0.5403137423,-2.6726143966
 N,0,-0.9707311005,1.5001606349,-1.9310112614
 H,0,3.3922140033,0.7960524633,2.5065748616
 H,0,-0.4746873981,1.9296426586,0.952221973
 H,0,4.1384466927,0.0941141284,0.2299077893
 C,0,0.3178791515,0.1539455827,-11.1744956912
 C,0,-0.9985818772,0.5931012272,-10.9535106459
 C,0,1.1787725426,-0.1060569813,-10.110783518
 C,0,0.6868897834,0.0759657964,-8.8205953644
 C,0,-0.6297411198,0.5151490431,-8.5997446523
 C,0,-1.4875384128,0.783728039,-9.6633037655
 C,0,1.2902220302,-0.084684686,-7.4994359109
 C,0,-0.790388402,0.6130285143,-7.151017883
 N,0,0.3679497224,0.2266693731,-6.5412105867
 N,0,-1.8998582709,1.064815732,-6.5800234622
 H,0,0.6682992853,0.0187978515,-12.1947071325
 H,0,-1.6429188358,0.789606809,-11.8067979461
 H,0,2.2001354591,-0.4382089819,-10.2722093426
 H,0,-2.5010312909,1.1298263946,-9.4830244164
 C,0,-5.3239508178,2.9339820079,-4.3565026885
 C,0,-5.0487185111,3.069848978,-2.985037895
 C,0,-4.3989886735,2.3564329711,-5.222783161
 C,0,-3.1958063618,1.909930408,-4.6816949759
 C,0,-2.9197637743,2.0465874559,-3.31019915
 C,0,-3.8415929609,2.6319932845,-2.4454560922
 C,0,-2.0188947479,1.2802637542,-5.2743172324
 C,0,-1.5840924375,1.4925280343,-3.1062848452
 N,0,-1.1014642488,1.0288780666,-4.2976002794
 H,0,-6.2753371602,3.2888468561,-4.7448681864
 H,0,-5.7924699688,3.5269248461,-2.3370370693
 H,0,-4.6004425439,2.2528948112,-6.2849549012
 H,0,-3.6190035784,2.7373896497,-1.3876166941
 Zn,0,0.5733961609,-0.1158363027,-4.5278767759
 C,0,1.0259368996,1.8366806547,3.2228923649
 C,0,0.5668541902,3.1721268381,4.9266728252
 C,0,0.4151837228,1.871152596,5.306631062
 H,0,0.4392096358,4.1008415647,5.4624086246
 H,0,0.1140246844,1.4741428333,6.2645642303
 N,0,0.7011683901,1.0467560322,4.2443068463
 N,0,0.9532839413,3.1416197028,3.6062492699
 C,0,1.2531064308,4.3087878307,2.7962653705
 H,0,2.0153909008,4.9182562577,3.2897370878
 H,0,1.6279706121,3.9813549902,1.8265000257
 H,0,0.3508148039,4.9089404514,2.6459832964
 C,0,-0.6179610577,-2.5325696324,-2.0305791237
 C,0,-1.9141695169,-2.0117017638,-1.8205535597
 C,0,0.2787443496,-2.6643334971,-0.9654324564
 C,0,-2.3352421874,-1.6175414531,-0.5555838743
 H,0,-2.584976077,-1.9173883491,-2.6699745519
 C,0,-0.1392454924,-2.2475581348,0.2936930279
 H,0,1.2827560799,-3.050308321,-1.1172214134
 C,0,-1.4332814675,-1.7353332744,0.4996453522
 H,0,-3.3303942617,-1.2155839192,-0.39299713
 C,0,0.5366295626,-2.1894968735,1.5839639307
 C,0,-1.5156256139,-1.3996818397,1.9165512499
 N,0,-0.3142360096,-1.6616728759,2.5084040962
 N,0,1.7797293467,-2.6211683884,1.7659865257
 N,0,-2.6279613247,-0.9520058299,2.4888413135
 Zn,0,0.2362563764,-1.0057127741,4.3636592821
 C,0,2.3934229898,-2.6137181671,2.941083914
 C,0,-2.7463179443,-0.7361296266,3.7927137359
 N,0,-1.781309802,-0.8636607892,4.7508857383
 N,0,0.442310594,-1.3487866765,6.376855894
 N,0,1.9111373872,-2.1503048839,4.1326337846
 C,0,3.7291807944,-3.1677614988,3.1444880165
 C,0,-4.0059436453,-0.3510748085,4.4237181168
 C,0,-2.3333739127,-0.6083663669,5.9697009664
 C,0,-0.4797101196,-1.037747596,7.3354343097
 C,0,1.6008857181,-1.7351032156,6.9862275227
 C,0,2.828878984,-2.4018435159,5.1090201978
 C,0,4.0056420712,-3.0313428023,4.5159200005
 C,0,4.6507591587,-3.7529693191,2.2793461225
 C,0,-5.2782272914,-0.0980766875,3.9167084636
 C,0,-3.7451314925,-0.2729814118,5.8029061243
 N,0,-1.7426373772,-0.6679712874,7.160140536
 C,0,0.1240534671,-1.1985825776,8.6563746349
 C,0,1.4406766841,-1.6375369965,8.4350236701
 N,0,2.7102342062,-2.1866565297,6.4148041718
 C,0,5.2090102928,-3.4778939447,5.0565530908
 C,0,5.8580724333,-4.1908713479,2.8184722081
 H,0,4.4278404395,-3.8581782092,1.2215576706
 C,0,-6.2808279043,0.2420904233,4.8217583118
 H,0,-5.4731789863,-0.1659734041,2.8503861801
 C,0,-4.7494571234,0.0599788629,6.7085213888
 C,0,-0.3674470775,-1.0169060953,9.9467588624
 C,0,2.2988486967,-1.9062210258,9.4982532031
 C,0,6.1337262767,-4.0552439616,4.1898752065
 H,0,5.4107919974,-3.374544369,6.1186808123
 H,0,6.6016422777,-4.6477951147,2.1701560622
 C,0,-6.0199529408,0.3200351603,6.2004191635
 H,0,-7.2845481729,0.4490174881,4.4588291784
 H,0,-4.5399757343,0.1117067837,7.7729789549
 C,0,0.4938196047,-1.2770123164,11.0101434898
 H,0,-1.3888067924,-0.6849361596,10.1085808443
 C,0,1.8102744979,-1.7159345617,10.7886539065
 H,0,3.3123322836,-2.2521389317,9.3175756484
 H,0,7.0852491288,-4.4101392864,4.5778783846
 H,0,-6.8264518313,0.5854471979,6.8794186143
 H,0,0.1437003494,-1.1421301547,12.0304936089
 H,0,2.4549067275,-1.9125269425,11.6416979903
 C,0,-0.218739315,-2.9578386809,-3.3872045176
 N,0,0.1078401279,-2.1682458506,-4.4082821841
 N,0,-0.1480856208,-4.2628198266,-3.7708238455
 C,0,0.3929569187,-2.9928784539,-5.4706495315
 C,0,0.2389295973,-4.2936840687,-5.0910583724
 C,0,-0.450215934,-5.4296376699,-2.9612016562
 H,0,0.6952178481,-2.5961587569,-6.4283536739
 H,0,0.3652616038,-5.2224888942,-5.6269494275
 H,0,0.4505769661,-6.0324285806,-2.8125439808
 H,0,-0.82281116,-5.1017397326,-1.9907220703
 H,0,-1.2149171968,-6.0366500024,-3.4539798124
 Recover connectivity data from disk.
 NAtoms=    134 NQM=      134 NQMF=       0 NMMI=      0 NMMIF=      0
                NMic=       0 NMicF=      0.
                    Isotopes and Nuclear Properties:
 (Nuclear quadrupole moments (NQMom) in fm**2, nuclear magnetic moments (NMagM)
  in nuclear magnetons)

  Atom         1           2           3           4           5           6           7           8           9          10
 IAtWgt=          12          12          12          12          12          12          12          12          14          14
 AtmWgt=  12.0000000  12.0000000  12.0000000  12.0000000  12.0000000  12.0000000  12.0000000  12.0000000  14.0030740  14.0030740
 NucSpn=           0           0           0           0           0           0           0           0           2           2
 AtZEff=  -3.6000000  -3.6000000  -3.6000000  -3.6000000  -3.6000000  -3.6000000  -3.6000000  -3.6000000  -4.5500000  -4.5500000
 NQMom=    0.0000000   0.0000000   0.0000000   0.0000000   0.0000000   0.0000000   0.0000000   0.0000000   2.0440000   2.0440000
 NMagM=    0.0000000   0.0000000   0.0000000   0.0000000   0.0000000   0.0000000   0.0000000   0.0000000   0.4037610   0.4037610
 AtZNuc=   6.0000000   6.0000000   6.0000000   6.0000000   6.0000000   6.0000000   6.0000000   6.0000000   7.0000000   7.0000000

  Atom        11          12          13          14          15          16          17          18          19          20
 IAtWgt=          14           1           1           1           1          12          12          12          12          12
 AtmWgt=  14.0030740   1.0078250   1.0078250   1.0078250   1.0078250  12.0000000  12.0000000  12.0000000  12.0000000  12.0000000
 NucSpn=           2           1           1           1           1           0           0           0           0           0
 AtZEff=  -4.5500000  -1.0000000  -1.0000000  -1.0000000  -1.0000000  -3.6000000  -3.6000000  -3.6000000  -3.6000000  -3.6000000
 NQMom=    2.0440000   0.0000000   0.0000000   0.0000000   0.0000000   0.0000000   0.0000000   0.0000000   0.0000000   0.0000000
 NMagM=    0.4037610   2.7928460   2.7928460   2.7928460   2.7928460   0.0000000   0.0000000   0.0000000   0.0000000   0.0000000
 AtZNuc=   7.0000000   1.0000000   1.0000000   1.0000000   1.0000000   6.0000000   6.0000000   6.0000000   6.0000000   6.0000000

  Atom        21          22          23          24          25          26          27          28          29          30
 IAtWgt=          12          12          12          14          14           1           1           1          12          12
 AtmWgt=  12.0000000  12.0000000  12.0000000  14.0030740  14.0030740   1.0078250   1.0078250   1.0078250  12.0000000  12.0000000
 NucSpn=           0           0           0           2           2           1           1           1           0           0
 AtZEff=  -3.6000000  -3.6000000  -3.6000000  -4.5500000  -4.5500000  -1.0000000  -1.0000000  -1.0000000  -3.6000000  -3.6000000
 NQMom=    0.0000000   0.0000000   0.0000000   2.0440000   2.0440000   0.0000000   0.0000000   0.0000000   0.0000000   0.0000000
 NMagM=    0.0000000   0.0000000   0.0000000   0.4037610   0.4037610   2.7928460   2.7928460   2.7928460   0.0000000   0.0000000
 AtZNuc=   6.0000000   6.0000000   6.0000000   7.0000000   7.0000000   1.0000000   1.0000000   1.0000000   6.0000000   6.0000000

  Atom        31          32          33          34          35          36          37          38          39          40
 IAtWgt=          12          12          12          12          12          12          14          14           1           1
 AtmWgt=  12.0000000  12.0000000  12.0000000  12.0000000  12.0000000  12.0000000  14.0030740  14.0030740   1.0078250   1.0078250
 NucSpn=           0           0           0           0           0           0           2           2           1           1
 AtZEff=  -3.6000000  -3.6000000  -3.6000000  -3.6000000  -3.6000000  -3.6000000  -4.5500000  -4.5500000  -1.0000000  -1.0000000
 NQMom=    0.0000000   0.0000000   0.0000000   0.0000000   0.0000000   0.0000000   2.0440000   2.0440000   0.0000000   0.0000000
 NMagM=    0.0000000   0.0000000   0.0000000   0.0000000   0.0000000   0.0000000   0.4037610   0.4037610   2.7928460   2.7928460
 AtZNuc=   6.0000000   6.0000000   6.0000000   6.0000000   6.0000000   6.0000000   7.0000000   7.0000000   1.0000000   1.0000000

  Atom        41          42          43          44          45          46          47          48          49          50
 IAtWgt=           1           1          12          12          12          12          12          12          12          12
 AtmWgt=   1.0078250   1.0078250  12.0000000  12.0000000  12.0000000  12.0000000  12.0000000  12.0000000  12.0000000  12.0000000
 NucSpn=           1           1           0           0           0           0           0           0           0           0
 AtZEff=  -1.0000000  -1.0000000  -3.6000000  -3.6000000  -3.6000000  -3.6000000  -3.6000000  -3.6000000  -3.6000000  -3.6000000
 NQMom=    0.0000000   0.0000000   0.0000000   0.0000000   0.0000000   0.0000000   0.0000000   0.0000000   0.0000000   0.0000000
 NMagM=    2.7928460   2.7928460   0.0000000   0.0000000   0.0000000   0.0000000   0.0000000   0.0000000   0.0000000   0.0000000
 AtZNuc=   1.0000000   1.0000000   6.0000000   6.0000000   6.0000000   6.0000000   6.0000000   6.0000000   6.0000000   6.0000000

  Atom        51          52          53          54          55          56          57          58          59          60
 IAtWgt=          14           1           1           1           1          64          12          12          12           1
 AtmWgt=  14.0030740   1.0078250   1.0078250   1.0078250   1.0078250  63.9291454  12.0000000  12.0000000  12.0000000   1.0078250
 NucSpn=           2           1           1           1           1           0           0           0           0           1
 AtZEff=  -4.5500000  -1.0000000  -1.0000000  -1.0000000  -1.0000000 -25.5000000  -3.6000000  -3.6000000  -3.6000000  -1.0000000
 NQMom=    2.0440000   0.0000000   0.0000000   0.0000000   0.0000000   0.0000000   0.0000000   0.0000000   0.0000000   0.0000000
 NMagM=    0.4037610   2.7928460   2.7928460   2.7928460   2.7928460   0.0000000   0.0000000   0.0000000   0.0000000   2.7928460
 AtZNuc=   7.0000000   1.0000000   1.0000000   1.0000000   1.0000000  30.0000000   6.0000000   6.0000000   6.0000000   1.0000000

  Atom        61          62          63          64          65          66          67          68          69          70
 IAtWgt=           1          14          14          12           1           1           1          12          12          12
 AtmWgt=   1.0078250  14.0030740  14.0030740  12.0000000   1.0078250   1.0078250   1.0078250  12.0000000  12.0000000  12.0000000
 NucSpn=           1           2           2           0           1           1           1           0           0           0
 AtZEff=  -1.0000000  -4.5500000  -4.5500000  -3.6000000  -1.0000000  -1.0000000  -1.0000000  -3.6000000  -3.6000000  -3.6000000
 NQMom=    0.0000000   2.0440000   2.0440000   0.0000000   0.0000000   0.0000000   0.0000000   0.0000000   0.0000000   0.0000000
 NMagM=    2.7928460   0.4037610   0.4037610   0.0000000   2.7928460   2.7928460   2.7928460   0.0000000   0.0000000   0.0000000
 AtZNuc=   1.0000000   7.0000000   7.0000000   6.0000000   1.0000000   1.0000000   1.0000000   6.0000000   6.0000000   6.0000000

  Atom        71          72          73          74          75          76          77          78          79          80
 IAtWgt=          12           1          12           1          12           1          12          12          14          14
 AtmWgt=  12.0000000   1.0078250  12.0000000   1.0078250  12.0000000   1.0078250  12.0000000  12.0000000  14.0030740  14.0030740
 NucSpn=           0           1           0           1           0           1           0           0           2           2
 AtZEff=  -3.6000000  -1.0000000  -3.6000000  -1.0000000  -3.6000000  -1.0000000  -3.6000000  -3.6000000  -4.5500000  -4.5500000
 NQMom=    0.0000000   0.0000000   0.0000000   0.0000000   0.0000000   0.0000000   0.0000000   0.0000000   2.0440000   2.0440000
 NMagM=    0.0000000   2.7928460   0.0000000   2.7928460   0.0000000   2.7928460   0.0000000   0.0000000   0.4037610   0.4037610
 AtZNuc=   6.0000000   1.0000000   6.0000000   1.0000000   6.0000000   1.0000000   6.0000000   6.0000000   7.0000000   7.0000000

  Atom        81          82          83          84          85          86          87          88          89          90
 IAtWgt=          14          64          12          12          14          14          14          12          12          12
 AtmWgt=  14.0030740  63.9291454  12.0000000  12.0000000  14.0030740  14.0030740  14.0030740  12.0000000  12.0000000  12.0000000
 NucSpn=           2           0           0           0           2           2           2           0           0           0
 AtZEff=  -4.5500000 -25.5000000  -3.6000000  -3.6000000  -4.5500000  -4.5500000  -4.5500000  -3.6000000  -3.6000000  -3.6000000
 NQMom=    2.0440000   0.0000000   0.0000000   0.0000000   2.0440000   2.0440000   2.0440000   0.0000000   0.0000000   0.0000000
 NMagM=    0.4037610   0.0000000   0.0000000   0.0000000   0.4037610   0.4037610   0.4037610   0.0000000   0.0000000   0.0000000
 AtZNuc=   7.0000000  30.0000000   6.0000000   6.0000000   7.0000000   7.0000000   7.0000000   6.0000000   6.0000000   6.0000000

  Atom        91          92          93          94          95          96          97          98          99         100
 IAtWgt=          12          12          12          12          12          12          12          14          12          12
 AtmWgt=  12.0000000  12.0000000  12.0000000  12.0000000  12.0000000  12.0000000  12.0000000  14.0030740  12.0000000  12.0000000
 NucSpn=           0           0           0           0           0           0           0           2           0           0
 AtZEff=  -3.6000000  -3.6000000  -3.6000000  -3.6000000  -3.6000000  -3.6000000  -3.6000000  -4.5500000  -3.6000000  -3.6000000
 NQMom=    0.0000000   0.0000000   0.0000000   0.0000000   0.0000000   0.0000000   0.0000000   2.0440000   0.0000000   0.0000000
 NMagM=    0.0000000   0.0000000   0.0000000   0.0000000   0.0000000   0.0000000   0.0000000   0.4037610   0.0000000   0.0000000
 AtZNuc=   6.0000000   6.0000000   6.0000000   6.0000000   6.0000000   6.0000000   6.0000000   7.0000000   6.0000000   6.0000000

  Atom       101         102         103         104         105         106         107         108         109         110
 IAtWgt=          14          12          12           1          12           1          12          12          12          12
 AtmWgt=  14.0030740  12.0000000  12.0000000   1.0078250  12.0000000   1.0078250  12.0000000  12.0000000  12.0000000  12.0000000
 NucSpn=           2           0           0           1           0           1           0           0           0           0
 AtZEff=  -4.5500000  -3.6000000  -3.6000000  -1.0000000  -3.6000000  -1.0000000  -3.6000000  -3.6000000  -3.6000000  -3.6000000
 NQMom=    2.0440000   0.0000000   0.0000000   0.0000000   0.0000000   0.0000000   0.0000000   0.0000000   0.0000000   0.0000000
 NMagM=    0.4037610   0.0000000   0.0000000   2.7928460   0.0000000   2.7928460   0.0000000   0.0000000   0.0000000   0.0000000
 AtZNuc=   7.0000000   6.0000000   6.0000000   1.0000000   6.0000000   1.0000000   6.0000000   6.0000000   6.0000000   6.0000000

  Atom       111         112         113         114         115         116         117         118         119         120
 IAtWgt=           1           1          12           1           1          12           1          12           1           1
 AtmWgt=   1.0078250   1.0078250  12.0000000   1.0078250   1.0078250  12.0000000   1.0078250  12.0000000   1.0078250   1.0078250
 NucSpn=           1           1           0           1           1           0           1           0           1           1
 AtZEff=  -1.0000000  -1.0000000  -3.6000000  -1.0000000  -1.0000000  -3.6000000  -1.0000000  -3.6000000  -1.0000000  -1.0000000
 NQMom=    0.0000000   0.0000000   0.0000000   0.0000000   0.0000000   0.0000000   0.0000000   0.0000000   0.0000000   0.0000000
 NMagM=    2.7928460   2.7928460   0.0000000   2.7928460   2.7928460   0.0000000   2.7928460   0.0000000   2.7928460   2.7928460
 AtZNuc=   1.0000000   1.0000000   6.0000000   1.0000000   1.0000000   6.0000000   1.0000000   6.0000000   1.0000000   1.0000000

  Atom       121         122         123         124         125         126         127         128         129         130
 IAtWgt=           1           1           1          12          14          14          12          12          12           1
 AtmWgt=   1.0078250   1.0078250   1.0078250  12.0000000  14.0030740  14.0030740  12.0000000  12.0000000  12.0000000   1.0078250
 NucSpn=           1           1           1           0           2           2           0           0           0           1
 AtZEff=  -1.0000000  -1.0000000  -1.0000000  -3.6000000  -4.5500000  -4.5500000  -3.6000000  -3.6000000  -3.6000000  -1.0000000
 NQMom=    0.0000000   0.0000000   0.0000000   0.0000000   2.0440000   2.0440000   0.0000000   0.0000000   0.0000000   0.0000000
 NMagM=    2.7928460   2.7928460   2.7928460   0.0000000   0.4037610   0.4037610   0.0000000   0.0000000   0.0000000   2.7928460
 AtZNuc=   1.0000000   1.0000000   1.0000000   6.0000000   7.0000000   7.0000000   6.0000000   6.0000000   6.0000000   1.0000000

  Atom       131         132         133         134
 IAtWgt=           1           1           1           1
 AtmWgt=   1.0078250   1.0078250   1.0078250   1.0078250
 NucSpn=           1           1           1           1
 AtZEff=  -1.0000000  -1.0000000  -1.0000000  -1.0000000
 NQMom=    0.0000000   0.0000000   0.0000000   0.0000000
 NMagM=    2.7928460   2.7928460   2.7928460   2.7928460
 AtZNuc=   1.0000000   1.0000000   1.0000000   1.0000000
 Leave Link  101 at Tue May 20 15:23:45 2025, MaxMem=  4294967296 cpu:         1.7
 (Enter /home/sergey/g09/l202.exe)
 Stoichiometry    C72H40N20Zn2
 Framework group  C1[X(C72H40N20Zn2)]
 Deg. of freedom   396
 Full point group                 C1      NOp   1
 RotChk:  IX=1 Diff= 2.97D-15
 Largest Abelian subgroup         C1      NOp   1
 Largest concise Abelian subgroup C1      NOp   1
                         Standard orientation:                         
 ---------------------------------------------------------------------
 Center     Atomic      Atomic             Coordinates (Angstroms)
 Number     Number       Type             X           Y           Z
 ---------------------------------------------------------------------
      1          6           0        5.115037   -6.434836    1.341852
      2          6           0        6.474162   -6.199949    1.072706
      3          6           0        4.192586   -5.391336    1.357068
      4          6           0        4.661626   -4.107648    1.088897
      5          6           0        6.021269   -3.872866    0.819593
      6          6           0        6.944807   -4.915306    0.811656
      7          6           0        4.004669   -2.804491    1.031535
      8          6           0        6.150476   -2.434374    0.601829
      9          7           0        4.928382   -1.845769    0.726250
     10          7           0        7.316950   -1.845056    0.353423
     11          7           0        2.713151   -2.634908    1.284340
     12          1           0        4.781498   -7.449688    1.543885
     13          1           0        7.167814   -7.037069    1.071700
     14          1           0        3.141568   -5.563865    1.569796
     15          1           0        7.994379   -4.723347    0.608737
     16          6           0       -1.777280   -0.253498    2.346665
     17          6           0       -1.547150   -1.647071    2.322368
     18          6           0       -0.743731    0.644905    2.062731
     19          6           0        0.502948    0.122124    1.736702
     20          6           0        0.729479   -1.266299    1.719949
     21          6           0       -0.293079   -2.164298    2.018106
     22          6           0        1.758095    0.748815    1.340690
     23          6           0        2.124735   -1.444754    1.334631
     24          7           0        2.681865   -0.222377    1.094499
     25          7           0        1.915438    2.066158    1.272750
     26          1           0       -2.372526   -2.318373    2.542589
     27          1           0       -0.912209    1.718065    2.064452
     28          1           0       -0.115197   -3.234934    1.997450
     29          6           0       11.102157    0.517039   -0.183012
     30          6           0       10.854603    1.899094   -0.241332
     31          6           0       10.060928   -0.395618   -0.030951
     32          6           0        8.765341    0.108513    0.052560
     33          6           0        8.517916    1.490739   -0.005807
     34          6           0        9.559657    2.403671   -0.148766
     35          6           0        7.462911   -0.532151    0.221399
     36          6           0        7.072728    1.653485    0.132547
     37          7           0        6.488570    0.424886    0.242955
     38          7           0        6.485535    2.842293    0.187420
     39          1           0       12.125587    0.157457   -0.255004
     40          1           0       11.691021    2.583768   -0.357569
     41          1           0       10.243530   -1.464876    0.022975
     42          1           0        9.359453    3.470452   -0.185490
     43          6           0        4.243020    6.678826    0.831137
     44          6           0        2.895348    6.451546    1.158630
     45          6           0        5.109141    5.619866    0.570373
     46          6           0        4.591609    4.328512    0.636358
     47          6           0        3.243989    4.100768    0.964882
     48          6           0        2.380023    5.159732    1.233970
     49          6           0        5.192044    3.011866    0.439573
     50          6           0        3.061454    2.651920    0.954837
     51          7           0        4.240451    2.051181    0.613937
     52          1           0        4.612984    7.699980    0.783534
     53          1           0        2.246881    7.301106    1.357947
     54          1           0        6.153477    5.785627    0.322589
     55          1           0        1.341000    4.975074    1.490897
     56         30           0        4.468026    0.076365    0.148249
     57          6           0       -3.119986    0.253315    2.694284
     58          6           0       -4.754506    1.145071    3.890176
     59          6           0       -5.221047    0.801244    2.655660
     60          1           0       -5.235952    1.597230    4.744330
     61          1           0       -6.213608    0.920113    2.247442
     62          7           0       -4.201401    0.248508    1.917585
     63          7           0       -3.423672    0.795221    3.906398
     64          6           0       -2.530535    0.958781    5.039449
     65          1           0       -2.952854    0.466759    5.920133
     66          1           0       -1.568419    0.504906    4.801730
     67          1           0       -2.380606    2.020865    5.254846
     68          6           0        1.777180    0.255298   -2.346497
     69          6           0        1.546506    1.648775   -2.322405
     70          6           0        0.744027   -0.643469   -2.062256
     71          6           0        0.292272    2.165559   -2.018027
     72          1           0        2.371578    2.320379   -2.542850
     73          6           0       -0.502837   -0.121135   -1.736199
     74          1           0        0.912933   -1.716559   -2.063905
     75          6           0       -0.729900    1.267205   -1.719629
     76          1           0        0.113965    3.236128   -1.997515
     77          6           0       -1.757777   -0.748247   -1.340177
     78          6           0       -2.125237    1.445178   -1.334369
     79          7           0       -2.681926    0.222617   -1.094145
     80          7           0       -1.914671   -2.065642   -1.272182
     81          7           0       -2.714097    2.635117   -1.284265
     82         30           0       -4.468071   -0.076669   -0.147884
     83          6           0       -3.060509   -2.651778   -0.954330
     84          6           0       -4.005705    2.804245   -1.031600
     85          7           0       -4.929085    1.845210   -0.726282
     86          7           0       -6.488488   -0.425962   -0.242906
     87          7           0       -4.239740   -2.051448   -0.613507
     88          6           0       -3.242531   -4.100692   -0.964366
     89          6           0       -4.663145    4.107144   -1.089199
     90          6           0       -6.151416    2.433374   -0.602070
     91          6           0       -7.463190    0.530719   -0.221523
     92          6           0       -7.072199   -1.654759   -0.132403
     93          6           0       -5.191001   -3.012474   -0.439195
     94          6           0       -4.590085   -4.328912   -0.635914
     95          6           0       -2.378165   -5.159344   -1.233391
     96          6           0       -4.194565    5.390976   -1.357489
     97          6           0       -6.022730    3.871882   -0.820014
     98          7           0       -7.317699    1.843658   -0.353702
     99          6           0       -8.765396   -0.110410   -0.052714
    100          6           0       -8.517458   -1.492537    0.005826
    101          7           0       -6.484570   -2.843361   -0.187135
    102          6           0       -5.107158   -5.620450   -0.569939
    103          6           0       -2.893031   -6.451342   -1.158058
    104          1           0       -1.339195   -4.974311   -1.490261
    105          6           0       -5.117414    6.434127   -1.342515
    106          1           0       -3.143591    5.563877   -1.570134
    107          6           0       -6.946665    4.913974   -0.812315
    108          6           0      -10.061184    0.393234    0.030630
    109          6           0       -9.558862   -2.405851    0.148801
    110          6           0       -4.240639   -6.679102   -0.830639
    111          1           0       -6.151449   -5.786585   -0.322214
    112          1           0       -2.244247   -7.300672   -1.357324
    113          6           0       -6.476480    6.198760   -1.073484
    114          1           0       -4.784239    7.449079   -1.544649
    115          1           0       -7.996187    4.721643   -0.609488
    116          6           0      -11.102077   -0.519802    0.182708
    117          1           0      -10.244193    1.462417   -0.023434
    118          6           0      -10.854006   -1.901758    0.241205
    119          1           0       -9.358250   -3.472551    0.185659
    120          1           0       -4.610237   -7.700387   -0.783040
    121          1           0       -7.170449    7.035617   -1.072665
    122          1           0      -12.125650   -0.160600    0.254574
    123          1           0      -11.690175   -2.586734    0.357452
    124          6           0        3.119958   -0.251192   -2.694463
    125          7           0        4.201091   -0.248196   -1.917384
    126          7           0        3.423820   -0.791251   -3.907366
    127          6           0        5.220730   -0.800211   -2.655999
    128          6           0        4.754467   -1.141779   -3.891248
    129          6           0        2.530970   -0.952530   -5.040964
    130          1           0        6.213090   -0.920215   -2.247630
    131          1           0        5.236008   -1.592749   -4.745977
    132          1           0        2.382434   -2.014167   -5.259477
    133          1           0        1.568265   -0.500605   -4.801930
    134          1           0        2.952650   -0.457369   -5.920204
 ---------------------------------------------------------------------
 Rotational constants (GHZ):      0.0343869      0.0122576      0.0102635
 Leave Link  202 at Tue May 20 15:23:45 2025, MaxMem=  4294967296 cpu:         0.0
 (Enter /home/sergey/g09/l301.exe)
 Standard basis: def2SVP (5D, 7F)
 Ernie: Thresh=  0.10000D-02 Tol=  0.10000D-05 Strict=F.
 There are  1652 symmetry adapted cartesian basis functions of A   symmetry.
 There are  1550 symmetry adapted basis functions of A   symmetry.
  1550 basis functions,  2742 primitive gaussians,  1652 cartesian basis functions
   336 alpha electrons      336 beta electrons
       nuclear repulsion energy     19457.4754137610 Hartrees.
 IExCor=10402 DFT=T Ex=LC-B+HF Corr=LYP ExCW=0 ScaHFX=  1.000000
 ScaDFX=  1.000000  1.000000  1.000000  1.000000 ScalE2=  1.000000  1.000000
 IRadAn=      0 IRanWt=     -1 IRanGd=            0 ICorTp=0 IEmpDi=  4
  HFx wShort=  0.000000 wLong=  0.400000 cFull=  0.000000 cShort=  0.000000 cLong=  1.000000
  DFx wShort=  0.000000 wLong=  0.400000 cFull=  0.000000 cShort=  0.000000 cLong=  1.000000
 NAtoms=  134 NActive=  134 NUniq=  134 SFac= 1.00D+00 NAtFMM=   60 NAOKFM=T Big=T
 Integral buffers will be    131072 words long.
 Raffenetti 2 integral format.
 Two-electron integral symmetry is turned on.
 Leave Link  301 at Tue May 20 15:23:45 2025, MaxMem=  4294967296 cpu:         0.3
 (Enter /home/sergey/g09/l302.exe)
 NPDir=0 NMtPBC=     1 NCelOv=     1 NCel=       1 NClECP=     1 NCelD=      1
         NCelK=      1 NCelE2=     1 NClLst=     1 CellRange=     0.0.
 One-electron integrals computed using PRISM.
   1 Symmetry operations used in ECPInt.
 ECPInt:  NShTT=  241165 NPrTT=  929599 LenC2=  147268 LenP2D=  327463.
 LDataN:  DoStor=T MaxTD1= 6 Len=  172
 NBasis=  1550 RedAO= T EigKep=  2.16D-04  NBF=  1550
 NBsUse=  1550 1.00D-06 EigRej= -1.00D+00 NBFU=  1550
 Precomputing XC quadrature grid using
 IXCGrd= 4 IRadAn=           0 IRanWt=          -1 IRanGd=           0 AccXCQ= 0.00D+00.
 Generated NRdTot=       0 NPtTot=           0 NUsed=           0 NTot=          32
 NSgBfM=  1255  1255  1261  1265  1266 MxSgAt=   134 MxSgA2=   134.
 Leave Link  302 at Tue May 20 15:23:50 2025, MaxMem=  4294967296 cpu:        24.8
 (Enter /home/sergey/g09/l303.exe)
 DipDrv:  MaxL=1.
 Leave Link  303 at Tue May 20 15:23:50 2025, MaxMem=  4294967296 cpu:         1.7
 (Enter /home/sergey/g09/l401.exe)
 Initial guess from the checkpoint file:  "ZnPc-Im1.chk"
 B after Tr=     0.000000   -0.000000   -0.000000
         Rot=    1.000000   -0.000000    0.000000    0.000000 Ang=   0.00 deg.
 Guess basis will be translated and rotated to current coordinates.
 JPrj=2 DoOrth=T DoCkMO=T.
 Leave Link  401 at Tue May 20 15:23:53 2025, MaxMem=  4294967296 cpu:        19.9
 (Enter /home/sergey/g09/l502.exe)
 Closed shell SCF:
 Using DIIS extrapolation, IDIIS=  1040.
 Integral symmetry usage will be decided dynamically.
 IVT=     8228198 IEndB=     8228198 NGot=  4294967296 MDV=  4289486495
 LenX=  4289486495 LenY=  4286755739
 Requested convergence on RMS density matrix=1.00D-08 within 128 cycles.
 Requested convergence on MAX density matrix=1.00D-06.
 Requested convergence on             energy=1.00D-06.
 No special actions if energy rises.
 Fock matrices will be formed incrementally for  20 cycles.

 Cycle   1  Pass 1  IDiag  1:
 FoFJK:  IHMeth= 1 ICntrl=       0 DoSepK=T KAlg= 0 I1Cent=   0 FoldK=F
 IRaf=         1 NMat=   1 IRICut=       1 DoRegI=T DoRafI=F ISym2E= 0.
 FoFCou: FMM=T IPFlag=           0 FMFlag=      100000 FMFlg1=        2001
         NFxFlg=           0 DoJE=T BraDBF=F KetDBF=F FulRan=T
         wScrn=  0.000000 ICntrl=     500 IOpCl=  0 I1Cent=           0 NGrid=           0
         NMat0=    1 NMatS0=      1 NMatT0=    0 NMatD0=    1 NMtDS0=    0 NMtDT0=    0
 Symmetry not used in FoFCou.
 FMM levels:  10  Number of levels for PrismC:   9
 E= -7407.41234691383    
 DIIS: error= 6.96D-02 at cycle   1 NSaved=   1.
 NSaved= 1 IEnMin= 1 EnMin= -7407.41234691383     IErMin= 1 ErrMin= 6.96D-02
 ErrMax= 6.96D-02  0.00D+00 EMaxC= 1.00D-01 BMatC= 1.72D+00 BMatP= 1.72D+00
 IDIUse=3 WtCom= 3.04D-01 WtEn= 6.96D-01
 Coeff-Com:  0.100D+01
 Coeff-En:   0.100D+01
 Coeff:      0.100D+01
 Gap=     0.627 Goal=   None    Shift=    0.000
 GapD=    0.627 DampG=2.000 DampE=0.250 DampFc=0.5000 IDamp=-1.
 Damping current iteration by 5.00D-01
 RMSDP=1.21D-03 MaxDP=7.11D-02              OVMax= 2.73D-02

 Cycle   2  Pass 1  IDiag  1:
 RMSU=  6.01D-04    CP:  9.95D-01
 E= -7407.54630708902     Delta-E=       -0.133960175182 Rises=F Damp=T
 DIIS: error= 3.52D-02 at cycle   2 NSaved=   2.
 NSaved= 2 IEnMin= 2 EnMin= -7407.54630708902     IErMin= 2 ErrMin= 3.52D-02
 ErrMax= 3.52D-02  0.00D+00 EMaxC= 1.00D-01 BMatC= 4.47D-01 BMatP= 1.72D+00
 IDIUse=3 WtCom= 6.48D-01 WtEn= 3.52D-01
 Coeff-Com: -0.102D+01 0.202D+01
 Coeff-En:   0.000D+00 0.100D+01
 Coeff:     -0.662D+00 0.166D+01
 Gap=     0.181 Goal=   None    Shift=    0.000
 RMSDP=7.34D-04 MaxDP=4.54D-02 DE=-1.34D-01 OVMax= 9.78D-03

 Cycle   3  Pass 1  IDiag  1:
 RMSU=  1.14D-04    CP:  9.88D-01  2.20D+00
 E= -7407.70382848116     Delta-E=       -0.157521392150 Rises=F Damp=F
 DIIS: error= 2.38D-03 at cycle   3 NSaved=   3.
 NSaved= 3 IEnMin= 3 EnMin= -7407.70382848116     IErMin= 3 ErrMin= 2.38D-03
 ErrMax= 2.38D-03  0.00D+00 EMaxC= 1.00D-01 BMatC= 3.55D-03 BMatP= 4.47D-01
 IDIUse=3 WtCom= 9.76D-01 WtEn= 2.38D-02
 Coeff-Com: -0.348D+00 0.677D+00 0.672D+00
 Coeff-En:   0.000D+00 0.000D+00 0.100D+01
 Coeff:     -0.340D+00 0.660D+00 0.679D+00
 Gap=     0.181 Goal=   None    Shift=    0.000
 RMSDP=6.53D-05 MaxDP=5.22D-03 DE=-1.58D-01 OVMax= 4.80D-03

 Cycle   4  Pass 1  IDiag  1:
 RMSU=  5.35D-05    CP:  9.88D-01  2.26D+00  1.06D+00
 E= -7407.70637956620     Delta-E=       -0.002551085036 Rises=F Damp=F
 DIIS: error= 8.30D-04 at cycle   4 NSaved=   4.
 NSaved= 4 IEnMin= 4 EnMin= -7407.70637956620     IErMin= 4 ErrMin= 8.30D-04
 ErrMax= 8.30D-04  0.00D+00 EMaxC= 1.00D-01 BMatC= 4.59D-04 BMatP= 3.55D-03
 IDIUse=3 WtCom= 9.92D-01 WtEn= 8.30D-03
 Coeff-Com:  0.127D+00-0.254D+00 0.170D+00 0.957D+00
 Coeff-En:   0.000D+00 0.000D+00 0.000D+00 0.100D+01
 Coeff:      0.126D+00-0.251D+00 0.168D+00 0.957D+00
 Gap=     0.181 Goal=   None    Shift=    0.000
 RMSDP=3.25D-05 MaxDP=2.39D-03 DE=-2.55D-03 OVMax= 3.78D-03

 Cycle   5  Pass 1  IDiag  1:
 RMSU=  1.68D-05    CP:  9.87D-01  2.29D+00  1.25D+00  1.10D+00
 E= -7407.70677625552     Delta-E=       -0.000396689324 Rises=F Damp=F
 DIIS: error= 1.54D-04 at cycle   5 NSaved=   5.
 NSaved= 5 IEnMin= 5 EnMin= -7407.70677625552     IErMin= 5 ErrMin= 1.54D-04
 ErrMax= 1.54D-04  0.00D+00 EMaxC= 1.00D-01 BMatC= 3.70D-05 BMatP= 4.59D-04
 IDIUse=3 WtCom= 9.98D-01 WtEn= 1.54D-03
 Coeff-Com:  0.637D-01-0.126D+00 0.289D-01 0.369D+00 0.665D+00
 Coeff-En:   0.000D+00 0.000D+00 0.000D+00 0.000D+00 0.100D+01
 Coeff:      0.636D-01-0.126D+00 0.289D-01 0.368D+00 0.665D+00
 Gap=     0.182 Goal=   None    Shift=    0.000
 RMSDP=7.22D-06 MaxDP=4.93D-04 DE=-3.97D-04 OVMax= 1.20D-03

 Cycle   6  Pass 1  IDiag  1:
 RMSU=  4.89D-06    CP:  9.87D-01  2.29D+00  1.28D+00  1.16D+00  9.01D-01
 E= -7407.70681778341     Delta-E=       -0.000041527885 Rises=F Damp=F
 DIIS: error= 6.10D-05 at cycle   6 NSaved=   6.
 NSaved= 6 IEnMin= 6 EnMin= -7407.70681778341     IErMin= 6 ErrMin= 6.10D-05
 ErrMax= 6.10D-05  0.00D+00 EMaxC= 1.00D-01 BMatC= 4.10D-06 BMatP= 3.70D-05
 IDIUse=1 WtCom= 1.00D+00 WtEn= 0.00D+00
 Coeff-Com:  0.878D-02-0.173D-01-0.721D-02 0.291D-01 0.221D+00 0.766D+00
 Coeff:      0.878D-02-0.173D-01-0.721D-02 0.291D-01 0.221D+00 0.766D+00
 Gap=     0.182 Goal=   None    Shift=    0.000
 RMSDP=3.34D-06 MaxDP=2.48D-04 DE=-4.15D-05 OVMax= 1.59D-03

 Cycle   7  Pass 1  IDiag  1:
 RMSU=  2.22D-06    CP:  9.87D-01  2.29D+00  1.29D+00  1.18D+00  1.00D+00
                    CP:  1.18D+00
 E= -7407.70682856266     Delta-E=       -0.000010779251 Rises=F Damp=F
 DIIS: error= 6.07D-05 at cycle   7 NSaved=   7.
 NSaved= 7 IEnMin= 7 EnMin= -7407.70682856266     IErMin= 7 ErrMin= 6.07D-05
 ErrMax= 6.07D-05  0.00D+00 EMaxC= 1.00D-01 BMatC= 1.07D-06 BMatP= 4.10D-06
 IDIUse=1 WtCom= 1.00D+00 WtEn= 0.00D+00
 Coeff-Com: -0.130D-01 0.258D-01-0.922D-02-0.813D-01-0.899D-01 0.217D+00
 Coeff-Com:  0.951D+00
 Coeff:     -0.130D-01 0.258D-01-0.922D-02-0.813D-01-0.899D-01 0.217D+00
 Coeff:      0.951D+00
 Gap=     0.182 Goal=   None    Shift=    0.000
 RMSDP=2.75D-06 MaxDP=1.49D-04 DE=-1.08D-05 OVMax= 1.30D-03

 Cycle   8  Pass 1  IDiag  1:
 RMSU=  1.39D-06    CP:  9.87D-01  2.29D+00  1.30D+00  1.19D+00  1.07D+00
                    CP:  1.53D+00  1.37D+00
 E= -7407.70683521801     Delta-E=       -0.000006655355 Rises=F Damp=F
 DIIS: error= 3.17D-05 at cycle   8 NSaved=   8.
 NSaved= 8 IEnMin= 8 EnMin= -7407.70683521801     IErMin= 8 ErrMin= 3.17D-05
 ErrMax= 3.17D-05  0.00D+00 EMaxC= 1.00D-01 BMatC= 3.38D-07 BMatP= 1.07D-06
 IDIUse=1 WtCom= 1.00D+00 WtEn= 0.00D+00
 Coeff-Com: -0.480D-02 0.952D-02-0.130D-02-0.255D-01-0.593D-01-0.643D-01
 Coeff-Com:  0.223D+00 0.923D+00
 Coeff:     -0.480D-02 0.952D-02-0.130D-02-0.255D-01-0.593D-01-0.643D-01
 Coeff:      0.223D+00 0.923D+00
 Gap=     0.182 Goal=   None    Shift=    0.000
 RMSDP=1.80D-06 MaxDP=1.34D-04 DE=-6.66D-06 OVMax= 1.32D-03

 Cycle   9  Pass 1  IDiag  1:
 RMSU=  8.45D-07    CP:  9.87D-01  2.29D+00  1.30D+00  1.19D+00  1.10D+00
                    CP:  1.68D+00  1.88D+00  1.48D+00
 E= -7407.70683841307     Delta-E=       -0.000003195055 Rises=F Damp=F
 DIIS: error= 4.01D-05 at cycle   9 NSaved=   9.
 NSaved= 9 IEnMin= 9 EnMin= -7407.70683841307     IErMin= 8 ErrMin= 3.17D-05
 ErrMax= 4.01D-05  0.00D+00 EMaxC= 1.00D-01 BMatC= 3.09D-07 BMatP= 3.38D-07
 IDIUse=1 WtCom= 1.00D+00 WtEn= 0.00D+00
 Coeff-Com:  0.650D-02-0.129D-01 0.571D-02 0.434D-01 0.271D-01-0.175D+00
 Coeff-Com: -0.587D+00 0.652D+00 0.104D+01
 Coeff:      0.650D-02-0.129D-01 0.571D-02 0.434D-01 0.271D-01-0.175D+00
 Coeff:     -0.587D+00 0.652D+00 0.104D+01
 Gap=     0.182 Goal=   None    Shift=    0.000
 RMSDP=2.33D-06 MaxDP=1.51D-04 DE=-3.20D-06 OVMax= 1.43D-03

 Cycle  10  Pass 1  IDiag  1:
 RMSU=  5.46D-07    CP:  9.87D-01  2.29D+00  1.30D+00  1.20D+00  1.12D+00
                    CP:  1.87D+00  2.41D+00  2.59D+00  1.55D+00
 E= -7407.70684145480     Delta-E=       -0.000003041732 Rises=F Damp=F
 DIIS: error= 1.63D-05 at cycle  10 NSaved=  10.
 NSaved=10 IEnMin=10 EnMin= -7407.70684145480     IErMin=10 ErrMin= 1.63D-05
 ErrMax= 1.63D-05  0.00D+00 EMaxC= 1.00D-01 BMatC= 6.86D-08 BMatP= 3.09D-07
 IDIUse=1 WtCom= 1.00D+00 WtEn= 0.00D+00
 Coeff-Com:  0.410D-02-0.814D-02 0.250D-02 0.245D-01 0.299D-01-0.897D-02
 Coeff-Com: -0.306D+00-0.531D-01 0.171D+00 0.114D+01
 Coeff:      0.410D-02-0.814D-02 0.250D-02 0.245D-01 0.299D-01-0.897D-02
 Coeff:     -0.306D+00-0.531D-01 0.171D+00 0.114D+01
 Gap=     0.182 Goal=   None    Shift=    0.000
 RMSDP=1.59D-06 MaxDP=1.10D-04 DE=-3.04D-06 OVMax= 1.12D-03

 Cycle  11  Pass 1  IDiag  1:
 RMSU=  5.28D-07    CP:  9.87D-01  2.29D+00  1.30D+00  1.20D+00  1.13D+00
                    CP:  1.98D+00  2.79D+00  3.00D+00  2.27D+00  1.48D+00
 E= -7407.70684257896     Delta-E=       -0.000001124161 Rises=F Damp=F
 DIIS: error= 1.25D-05 at cycle  11 NSaved=  11.
 NSaved=11 IEnMin=11 EnMin= -7407.70684257896     IErMin=11 ErrMin= 1.25D-05
 ErrMax= 1.25D-05  0.00D+00 EMaxC= 1.00D-01 BMatC= 3.51D-08 BMatP= 6.86D-08
 IDIUse=1 WtCom= 1.00D+00 WtEn= 0.00D+00
 Coeff-Com: -0.124D-02 0.248D-02-0.139D-02-0.998D-02-0.330D-02 0.823D-01
 Coeff-Com:  0.125D+00-0.271D+00-0.520D+00 0.514D+00 0.108D+01
 Coeff:     -0.124D-02 0.248D-02-0.139D-02-0.998D-02-0.330D-02 0.823D-01
 Coeff:      0.125D+00-0.271D+00-0.520D+00 0.514D+00 0.108D+01
 Gap=     0.182 Goal=   None    Shift=    0.000
 RMSDP=1.25D-06 MaxDP=8.19D-05 DE=-1.12D-06 OVMax= 8.01D-04

 Cycle  12  Pass 1  IDiag  1:
 RMSU=  4.51D-07    CP:  9.87D-01  2.29D+00  1.30D+00  1.20D+00  1.14D+00
                    CP:  2.06D+00  3.00D+00  3.00D+00  2.77D+00  2.19D+00
                    CP:  2.35D+00
 E= -7407.70684297807     Delta-E=       -0.000000399108 Rises=F Damp=F
 DIIS: error= 2.20D-06 at cycle  12 NSaved=  12.
 NSaved=12 IEnMin=12 EnMin= -7407.70684297807     IErMin=12 ErrMin= 2.20D-06
 ErrMax= 2.20D-06  0.00D+00 EMaxC= 1.00D-01 BMatC= 5.57D-09 BMatP= 3.51D-08
 IDIUse=1 WtCom= 1.00D+00 WtEn= 0.00D+00
 Coeff-Com: -0.141D-02 0.280D-02-0.109D-02-0.962D-02-0.817D-02 0.408D-01
 Coeff-Com:  0.114D+00-0.912D-01-0.271D+00 0.207D-01 0.423D+00 0.781D+00
 Coeff:     -0.141D-02 0.280D-02-0.109D-02-0.962D-02-0.817D-02 0.408D-01
 Coeff:      0.114D+00-0.912D-01-0.271D+00 0.207D-01 0.423D+00 0.781D+00
 Gap=     0.182 Goal=   None    Shift=    0.000
 RMSDP=2.65D-07 MaxDP=1.80D-05 DE=-3.99D-07 OVMax= 1.79D-04

 Cycle  13  Pass 1  IDiag  1:
 RMSU=  1.30D-07    CP:  9.87D-01  2.29D+00  1.30D+00  1.20D+00  1.14D+00
                    CP:  2.08D+00  3.00D+00  3.00D+00  2.89D+00  2.33D+00
                    CP:  2.65D+00  1.14D+00
 E= -7407.70684301153     Delta-E=       -0.000000033462 Rises=F Damp=F
 DIIS: error= 1.55D-06 at cycle  13 NSaved=  13.
 NSaved=13 IEnMin=13 EnMin= -7407.70684301153     IErMin=13 ErrMin= 1.55D-06
 ErrMax= 1.55D-06  0.00D+00 EMaxC= 1.00D-01 BMatC= 1.66D-09 BMatP= 5.57D-09
 IDIUse=1 WtCom= 1.00D+00 WtEn= 0.00D+00
 Coeff-Com: -0.818D-04 0.160D-03 0.993D-04-0.110D-03-0.197D-02-0.117D-01
 Coeff-Com: -0.496D-02 0.602D-01 0.680D-01-0.149D+00-0.225D+00 0.305D+00
 Coeff-Com:  0.959D+00
 Coeff:     -0.818D-04 0.160D-03 0.993D-04-0.110D-03-0.197D-02-0.117D-01
 Coeff:     -0.496D-02 0.602D-01 0.680D-01-0.149D+00-0.225D+00 0.305D+00
 Coeff:      0.959D+00
 Gap=     0.182 Goal=   None    Shift=    0.000
 RMSDP=1.54D-07 MaxDP=9.04D-06 DE=-3.35D-08 OVMax= 8.81D-05

 Cycle  14  Pass 1  IDiag  1:
 RMSU=  6.35D-08    CP:  9.87D-01  2.29D+00  1.30D+00  1.20D+00  1.14D+00
                    CP:  2.09D+00  3.00D+00  3.00D+00  2.94D+00  2.41D+00
                    CP:  2.80D+00  1.26D+00  1.45D+00
 E= -7407.70684302050     Delta-E=       -0.000000008964 Rises=F Damp=F
 DIIS: error= 7.13D-07 at cycle  14 NSaved=  14.
 NSaved=14 IEnMin=14 EnMin= -7407.70684302050     IErMin=14 ErrMin= 7.13D-07
 ErrMax= 7.13D-07  0.00D+00 EMaxC= 1.00D-01 BMatC= 2.15D-10 BMatP= 1.66D-09
 IDIUse=1 WtCom= 1.00D+00 WtEn= 0.00D+00
 Coeff-Com:  0.235D-03-0.470D-03 0.226D-03 0.176D-02 0.872D-03-0.110D-01
 Coeff-Com: -0.230D-01 0.364D-01 0.702D-01-0.451D-01-0.152D+00-0.577D-01
 Coeff-Com:  0.260D+00 0.919D+00
 Coeff:      0.235D-03-0.470D-03 0.226D-03 0.176D-02 0.872D-03-0.110D-01
 Coeff:     -0.230D-01 0.364D-01 0.702D-01-0.451D-01-0.152D+00-0.577D-01
 Coeff:      0.260D+00 0.919D+00
 Gap=     0.182 Goal=   None    Shift=    0.000
 RMSDP=4.79D-08 MaxDP=2.98D-06 DE=-8.96D-09 OVMax= 2.34D-05

 Cycle  15  Pass 1  IDiag  1:
 RMSU=  2.36D-08    CP:  9.87D-01  2.29D+00  1.30D+00  1.20D+00  1.14D+00
                    CP:  2.09D+00  3.00D+00  3.00D+00  2.94D+00  2.42D+00
                    CP:  2.84D+00  1.29D+00  1.63D+00  1.23D+00
 E= -7407.70684302126     Delta-E=       -0.000000000764 Rises=F Damp=F
 DIIS: error= 2.56D-07 at cycle  15 NSaved=  15.
 NSaved=15 IEnMin=15 EnMin= -7407.70684302126     IErMin=15 ErrMin= 2.56D-07
 ErrMax= 2.56D-07  0.00D+00 EMaxC= 1.00D-01 BMatC= 5.92D-11 BMatP= 2.15D-10
 IDIUse=1 WtCom= 1.00D+00 WtEn= 0.00D+00
 Coeff-Com:  0.972D-04-0.193D-03 0.600D-04 0.643D-03 0.704D-03-0.190D-02
 Coeff-Com: -0.692D-02 0.174D-02 0.119D-01 0.115D-01-0.143D-01-0.696D-01
 Coeff-Com: -0.966D-01 0.361D+00 0.802D+00
 Coeff:      0.972D-04-0.193D-03 0.600D-04 0.643D-03 0.704D-03-0.190D-02
 Coeff:     -0.692D-02 0.174D-02 0.119D-01 0.115D-01-0.143D-01-0.696D-01
 Coeff:     -0.966D-01 0.361D+00 0.802D+00
 Gap=     0.182 Goal=   None    Shift=    0.000
 RMSDP=1.66D-08 MaxDP=1.03D-06 DE=-7.64D-10 OVMax= 6.79D-06

 Cycle  16  Pass 1  IDiag  1:
 RMSU=  8.77D-09    CP:  9.87D-01  2.29D+00  1.30D+00  1.20D+00  1.14D+00
                    CP:  2.10D+00  3.00D+00  3.00D+00  2.95D+00  2.42D+00
                    CP:  2.84D+00  1.30D+00  1.68D+00  1.36D+00  1.11D+00
 E= -7407.70684302166     Delta-E=       -0.000000000404 Rises=F Damp=F
 DIIS: error= 1.17D-07 at cycle  16 NSaved=  16.
 NSaved=16 IEnMin=16 EnMin= -7407.70684302166     IErMin=16 ErrMin= 1.17D-07
 ErrMax= 1.17D-07  0.00D+00 EMaxC= 1.00D-01 BMatC= 9.27D-12 BMatP= 5.92D-11
 IDIUse=1 WtCom= 1.00D+00 WtEn= 0.00D+00
 Coeff-Com: -0.252D-04 0.504D-04-0.326D-04-0.209D-03 0.359D-04 0.169D-02
 Coeff-Com:  0.343D-02-0.739D-02-0.121D-01 0.137D-01 0.276D-01-0.181D-02
 Coeff-Com: -0.899D-01-0.835D-01 0.186D+00 0.963D+00
 Coeff:     -0.252D-04 0.504D-04-0.326D-04-0.209D-03 0.359D-04 0.169D-02
 Coeff:      0.343D-02-0.739D-02-0.121D-01 0.137D-01 0.276D-01-0.181D-02
 Coeff:     -0.899D-01-0.835D-01 0.186D+00 0.963D+00
 Gap=     0.182 Goal=   None    Shift=    0.000
 RMSDP=7.15D-09 MaxDP=4.54D-07 DE=-4.04D-10 OVMax= 2.08D-06

 SCF Done:  E(RLC-B+HF-LYP) =  -7407.70684302     A.U. after   16 cycles
            NFock= 16  Conv=0.72D-08     -V/T= 2.0059
 KE= 7.364323282543D+03 PE=-5.637816609323D+04 EE= 2.214866055390D+04
 Leave Link  502 at Tue May 20 15:45:04 2025, MaxMem=  4294967296 cpu:      7525.9
 (Enter /home/sergey/g09/l601.exe)
 Copying SCF densities to generalized density rwf, IOpCl= 0 IROHF=0.
 Hyperfine terms turned off by default for NAtoms > 100.

 **********************************************************************

            Population analysis using the SCF density.

 **********************************************************************

 Orbital symmetries:
       Occupied  (A) (A) (A) (A) (A) (A) (A) (A) (A) (A) (A) (A)
                 (A) (A) (A) (A) (A) (A) (A) (A) (A) (A) (A) (A)
                 (A) (A) (A) (A) (A) (A) (A) (A) (A) (A) (A) (A)
                 (A) (A) (A) (A) (A) (A) (A) (A) (A) (A) (A) (A)
                 (A) (A) (A) (A) (A) (A) (A) (A) (A) (A) (A) (A)
                 (A) (A) (A) (A) (A) (A) (A) (A) (A) (A) (A) (A)
                 (A) (A) (A) (A) (A) (A) (A) (A) (A) (A) (A) (A)
                 (A) (A) (A) (A) (A) (A) (A) (A) (A) (A) (A) (A)
                 (A) (A) (A) (A) (A) (A) (A) (A) (A) (A) (A) (A)
                 (A) (A) (A) (A) (A) (A) (A) (A) (A) (A) (A) (A)
                 (A) (A) (A) (A) (A) (A) (A) (A) (A) (A) (A) (A)
                 (A) (A) (A) (A) (A) (A) (A) (A) (A) (A) (A) (A)
                 (A) (A) (A) (A) (A) (A) (A) (A) (A) (A) (A) (A)
                 (A) (A) (A) (A) (A) (A) (A) (A) (A) (A) (A) (A)
                 (A) (A) (A) (A) (A) (A) (A) (A) (A) (A) (A) (A)
                 (A) (A) (A) (A) (A) (A) (A) (A) (A) (A) (A) (A)
                 (A) (A) (A) (A) (A) (A) (A) (A) (A) (A) (A) (A)
                 (A) (A) (A) (A) (A) (A) (A) (A) (A) (A) (A) (A)
                 (A) (A) (A) (A) (A) (A) (A) (A) (A) (A) (A) (A)
                 (A) (A) (A) (A) (A) (A) (A) (A) (A) (A) (A) (A)
                 (A) (A) (A) (A) (A) (A) (A) (A) (A) (A) (A) (A)
                 (A) (A) (A) (A) (A) (A) (A) (A) (A) (A) (A) (A)
                 (A) (A) (A) (A) (A) (A) (A) (A) (A) (A) (A) (A)
                 (A) (A) (A) (A) (A) (A) (A) (A) (A) (A) (A) (A)
                 (A) (A) (A) (A) (A) (A) (A) (A) (A) (A) (A) (A)
                 (A) (A) (A) (A) (A) (A) (A) (A) (A) (A) (A) (A)
                 (A) (A) (A) (A) (A) (A) (A) (A) (A) (A) (A) (A)
                 (A) (A) (A) (A) (A) (A) (A) (A) (A) (A) (A) (A)
       Virtual   (A) (A) (A) (A) (A) (A) (A) (A) (A) (A) (A) (A)
                 (A) (A) (A) (A) (A) (A) (A) (A) (A) (A) (A) (A)
                 (A) (A) (A) (A) (A) (A) (A) (A) (A) (A) (A) (A)
                 (A) (A) (A) (A) (A) (A) (A) (A) (A) (A) (A) (A)
                 (A) (A) (A) (A) (A) (A) (A) (A) (A) (A) (A) (A)
                 (A) (A) (A) (A) (A) (A) (A) (A) (A) (A) (A) (A)
                 (A) (A) (A) (A) (A) (A) (A) (A) (A) (A) (A) (A)
                 (A) (A) (A) (A) (A) (A) (A) (A) (A) (A) (A) (A)
                 (A) (A) (A) (A) (A) (A) (A) (A) (A) (A) (A) (A)
                 (A) (A) (A) (A) (A) (A) (A) (A) (A) (A) (A) (A)
                 (A) (A) (A) (A) (A) (A) (A) (A) (A) (A) (A) (A)
                 (A) (A) (A) (A) (A) (A) (A) (A) (A) (A) (A) (A)
                 (A) (A) (A) (A) (A) (A) (A) (A) (A) (A) (A) (A)
                 (A) (A) (A) (A) (A) (A) (A) (A) (A) (A) (A) (A)
                 (A) (A) (A) (A) (A) (A) (A) (A) (A) (A) (A) (A)
                 (A) (A) (A) (A) (A) (A) (A) (A) (A) (A) (A) (A)
                 (A) (A) (A) (A) (A) (A) (A) (A) (A) (A) (A) (A)
                 (A) (A) (A) (A) (A) (A) (A) (A) (A) (A) (A) (A)
                 (A) (A) (A) (A) (A) (A) (A) (A) (A) (A) (A) (A)
                 (A) (A) (A) (A) (A) (A) (A) (A) (A) (A) (A) (A)
                 (A) (A) (A) (A) (A) (A) (A) (A) (A) (A) (A) (A)
                 (A) (A) (A) (A) (A) (A) (A) (A) (A) (A) (A) (A)
                 (A) (A) (A) (A) (A) (A) (A) (A) (A) (A) (A) (A)
                 (A) (A) (A) (A) (A) (A) (A) (A) (A) (A) (A) (A)
                 (A) (A) (A) (A) (A) (A) (A) (A) (A) (A) (A) (A)
                 (A) (A) (A) (A) (A) (A) (A) (A) (A) (A) (A) (A)
                 (A) (A) (A) (A) (A) (A) (A) (A) (A) (A) (A) (A)
                 (A) (A) (A) (A) (A) (A) (A) (A) (A) (A) (A) (A)
                 (A) (A) (A) (A) (A) (A) (A) (A) (A) (A) (A) (A)
                 (A) (A) (A) (A) (A) (A) (A) (A) (A) (A) (A) (A)
                 (A) (A) (A) (A) (A) (A) (A) (A) (A) (A) (A) (A)
                 (A) (A) (A) (A) (A) (A) (A) (A) (A) (A) (A) (A)
                 (A) (A) (A) (A) (A) (A) (A) (A) (A) (A) (A) (A)
                 (A) (A) (A) (A) (A) (A) (A) (A) (A) (A) (A) (A)
                 (A) (A) (A) (A) (A) (A) (A) (A) (A) (A) (A) (A)
                 (A) (A) (A) (A) (A) (A) (A) (A) (A) (A) (A) (A)
                 (A) (A) (A) (A) (A) (A) (A) (A) (A) (A) (A) (A)
                 (A) (A) (A) (A) (A) (A) (A) (A) (A) (A) (A) (A)
                 (A) (A) (A) (A) (A) (A) (A) (A) (A) (A) (A) (A)
                 (A) (A) (A) (A) (A) (A) (A) (A) (A) (A) (A) (A)
                 (A) (A) (A) (A) (A) (A) (A) (A) (A) (A) (A) (A)
                 (A) (A) (A) (A) (A) (A) (A) (A) (A) (A) (A) (A)
                 (A) (A) (A) (A) (A) (A) (A) (A) (A) (A) (A) (A)
                 (A) (A) (A) (A) (A) (A) (A) (A) (A) (A) (A) (A)
                 (A) (A) (A) (A) (A) (A) (A) (A) (A) (A) (A) (A)
                 (A) (A) (A) (A) (A) (A) (A) (A) (A) (A) (A) (A)
                 (A) (A) (A) (A) (A) (A) (A) (A) (A) (A) (A) (A)
                 (A) (A) (A) (A) (A) (A) (A) (A) (A) (A) (A) (A)
                 (A) (A) (A) (A) (A) (A) (A) (A) (A) (A) (A) (A)
                 (A) (A) (A) (A) (A) (A) (A) (A) (A) (A) (A) (A)
                 (A) (A) (A) (A) (A) (A) (A) (A) (A) (A) (A) (A)
                 (A) (A) (A) (A) (A) (A) (A) (A) (A) (A) (A) (A)
                 (A) (A) (A) (A) (A) (A) (A) (A) (A) (A) (A) (A)
                 (A) (A) (A) (A) (A) (A) (A) (A) (A) (A) (A) (A)
                 (A) (A) (A) (A) (A) (A) (A) (A) (A) (A) (A) (A)
                 (A) (A) (A) (A) (A) (A) (A) (A) (A) (A) (A) (A)
                 (A) (A) (A) (A) (A) (A) (A) (A) (A) (A) (A) (A)
                 (A) (A) (A) (A) (A) (A) (A) (A) (A) (A) (A) (A)
                 (A) (A) (A) (A) (A) (A) (A) (A) (A) (A) (A) (A)
                 (A) (A) (A) (A) (A) (A) (A) (A) (A) (A) (A) (A)
                 (A) (A) (A) (A) (A) (A) (A) (A) (A) (A) (A) (A)
                 (A) (A) (A) (A) (A) (A) (A) (A) (A) (A) (A) (A)
                 (A) (A) (A) (A) (A) (A) (A) (A) (A) (A) (A) (A)
                 (A) (A) (A) (A) (A) (A) (A) (A) (A) (A) (A) (A)
                 (A) (A) (A) (A) (A) (A) (A) (A) (A) (A) (A) (A)
                 (A) (A) (A) (A) (A) (A) (A) (A) (A) (A) (A) (A)
                 (A) (A) (A) (A) (A) (A) (A) (A) (A) (A) (A) (A)
                 (A) (A) (A) (A) (A) (A) (A) (A) (A) (A) (A) (A)
                 (A) (A) (A) (A) (A) (A) (A) (A) (A) (A) (A) (A)
                 (A) (A) (A) (A) (A) (A) (A) (A) (A) (A) (A) (A)
                 (A) (A) (A) (A) (A) (A) (A) (A) (A) (A) (A) (A)
                 (A) (A) (A) (A) (A) (A) (A) (A) (A) (A) (A) (A)
                 (A) (A) (A) (A) (A) (A) (A) (A) (A) (A) (A) (A)
                 (A) (A) (A) (A) (A) (A) (A) (A) (A) (A) (A) (A)
                 (A) (A) (A) (A) (A) (A) (A) (A) (A) (A) (A) (A)
                 (A) (A) (A) (A) (A) (A) (A) (A) (A) (A) (A) (A)
                 (A) (A) (A) (A) (A) (A) (A) (A) (A) (A) (A) (A)
                 (A) (A) (A) (A) (A) (A) (A) (A) (A) (A) (A) (A)
                 (A) (A) (A) (A) (A) (A) (A) (A) (A) (A) (A) (A)
                 (A) (A) (A) (A) (A) (A) (A) (A) (A) (A) (A) (A)
                 (A) (A) (A) (A) (A) (A) (A) (A) (A) (A) (A) (A)
                 (A) (A) (A) (A) (A) (A) (A) (A) (A) (A) (A) (A)
                 (A) (A) (A) (A) (A) (A) (A) (A) (A) (A) (A) (A)
                 (A) (A) (A) (A) (A) (A) (A) (A) (A) (A) (A) (A)
                 (A) (A) (A) (A) (A) (A) (A) (A) (A) (A) (A) (A)
                 (A) (A) (A) (A) (A) (A) (A) (A) (A) (A) (A) (A)
                 (A) (A) (A) (A) (A) (A) (A) (A) (A) (A) (A) (A)
                 (A) (A) (A) (A) (A) (A) (A) (A) (A) (A) (A) (A)
                 (A) (A) (A) (A) (A) (A) (A) (A) (A) (A) (A) (A)
                 (A) (A) (A) (A) (A) (A) (A) (A) (A) (A) (A) (A)
                 (A) (A) (A) (A) (A) (A) (A) (A) (A) (A) (A) (A)
                 (A) (A) (A) (A) (A) (A) (A) (A) (A) (A) (A) (A)
                 (A) (A) (A) (A) (A) (A) (A) (A) (A) (A) (A) (A)
                 (A) (A) (A) (A) (A) (A) (A) (A) (A) (A) (A) (A)
                 (A) (A) (A) (A) (A) (A) (A) (A) (A) (A) (A) (A)
                 (A) (A) (A) (A) (A) (A) (A) (A) (A) (A) (A) (A)
                 (A) (A) (A) (A) (A) (A) (A) (A) (A) (A) (A) (A)
                 (A) (A) (A) (A) (A) (A) (A) (A) (A) (A) (A) (A)
                 (A) (A) (A) (A) (A) (A) (A) (A) (A) (A) (A) (A)
                 (A) (A) (A) (A) (A) (A) (A) (A) (A) (A) (A) (A)
                 (A) (A) (A) (A) (A) (A) (A) (A) (A) (A) (A) (A)
                 (A) (A)
 The electronic state is 1-A.
 Alpha  occ. eigenvalues -- -345.97222-345.97221 -41.85179 -41.85178 -36.94529
 Alpha  occ. eigenvalues --  -36.94528 -36.94286 -36.94286 -36.94265 -36.94265
 Alpha  occ. eigenvalues --  -14.30579 -14.30578 -14.24371 -14.24370 -14.21781
 Alpha  occ. eigenvalues --  -14.21781 -14.21649 -14.21649 -14.21632 -14.21632
 Alpha  occ. eigenvalues --  -14.21429 -14.21429 -14.21378 -14.21377 -14.21364
 Alpha  occ. eigenvalues --  -14.21364 -14.21278 -14.21278 -14.21197 -14.21197
 Alpha  occ. eigenvalues --  -10.21235 -10.21234 -10.19241 -10.19241 -10.19230
 Alpha  occ. eigenvalues --  -10.19230 -10.19112 -10.19111 -10.18961 -10.18961
 Alpha  occ. eigenvalues --  -10.18822 -10.18822 -10.18756 -10.18756 -10.18700
 Alpha  occ. eigenvalues --  -10.18699 -10.18676 -10.18675 -10.18638 -10.18637
 Alpha  occ. eigenvalues --  -10.16852 -10.16852 -10.15842 -10.15841 -10.15236
 Alpha  occ. eigenvalues --  -10.15235 -10.14246 -10.14244 -10.13887 -10.13886
 Alpha  occ. eigenvalues --  -10.13528 -10.13527 -10.13001 -10.12997 -10.12962
 Alpha  occ. eigenvalues --  -10.12954 -10.12859 -10.12859 -10.12831 -10.12831
 Alpha  occ. eigenvalues --  -10.12739 -10.12738 -10.12729 -10.12729 -10.12723
 Alpha  occ. eigenvalues --  -10.12723 -10.12709 -10.12709 -10.12634 -10.12634
 Alpha  occ. eigenvalues --  -10.12628 -10.12628 -10.12585 -10.12585 -10.12577
 Alpha  occ. eigenvalues --  -10.12577 -10.12504 -10.12504 -10.12462 -10.12462
 Alpha  occ. eigenvalues --  -10.12429 -10.12429 -10.12391 -10.12391 -10.12293
 Alpha  occ. eigenvalues --  -10.12293 -10.12242 -10.12242 -10.12144 -10.12144
 Alpha  occ. eigenvalues --  -10.12114 -10.12114  -4.77248  -4.77247  -3.21289
 Alpha  occ. eigenvalues --   -3.21289  -3.20922  -3.20921  -3.20879  -3.20879
 Alpha  occ. eigenvalues --   -1.18385  -1.18384  -1.13290  -1.13273  -1.11918
 Alpha  occ. eigenvalues --   -1.11875  -1.11754  -1.11753  -1.09056  -1.09028
 Alpha  occ. eigenvalues --   -1.06524  -1.06518  -1.04654  -1.04652  -1.02521
 Alpha  occ. eigenvalues --   -1.02514  -1.02383  -1.02377  -1.00504  -1.00469
 Alpha  occ. eigenvalues --   -0.99303  -0.99292  -0.98605  -0.98604  -0.98470
 Alpha  occ. eigenvalues --   -0.98469  -0.98008  -0.98007  -0.93364  -0.93220
 Alpha  occ. eigenvalues --   -0.90275  -0.90254  -0.89152  -0.89130  -0.88895
 Alpha  occ. eigenvalues --   -0.88752  -0.88692  -0.88602  -0.88391  -0.88368
 Alpha  occ. eigenvalues --   -0.88340  -0.88318  -0.88137  -0.88130  -0.88058
 Alpha  occ. eigenvalues --   -0.88043  -0.86674  -0.86657  -0.84281  -0.84270
 Alpha  occ. eigenvalues --   -0.81516  -0.81501  -0.81308  -0.81294  -0.77476
 Alpha  occ. eigenvalues --   -0.77389  -0.76143  -0.76073  -0.75821  -0.75809
 Alpha  occ. eigenvalues --   -0.75625  -0.75592  -0.75224  -0.75160  -0.74816
 Alpha  occ. eigenvalues --   -0.74798  -0.74280  -0.74270  -0.72993  -0.72973
 Alpha  occ. eigenvalues --   -0.71679  -0.71673  -0.71141  -0.71063  -0.70848
 Alpha  occ. eigenvalues --   -0.70771  -0.70388  -0.70377  -0.68804  -0.68603
 Alpha  occ. eigenvalues --   -0.67728  -0.67550  -0.66944  -0.66941  -0.66348
 Alpha  occ. eigenvalues --   -0.66269  -0.65376  -0.65373  -0.65120  -0.65118
 Alpha  occ. eigenvalues --   -0.64947  -0.64920  -0.63473  -0.63456  -0.61555
 Alpha  occ. eigenvalues --   -0.61543  -0.61368  -0.61366  -0.61012  -0.60535
 Alpha  occ. eigenvalues --   -0.60189  -0.59933  -0.59848  -0.59828  -0.59719
 Alpha  occ. eigenvalues --   -0.59558  -0.59507  -0.59503  -0.59194  -0.59130
 Alpha  occ. eigenvalues --   -0.59088  -0.58798  -0.58543  -0.58502  -0.58252
 Alpha  occ. eigenvalues --   -0.58247  -0.58189  -0.58164  -0.57662  -0.57606
 Alpha  occ. eigenvalues --   -0.57284  -0.57265  -0.57220  -0.57016  -0.56728
 Alpha  occ. eigenvalues --   -0.56600  -0.56288  -0.56266  -0.56116  -0.56073
 Alpha  occ. eigenvalues --   -0.56012  -0.55986  -0.55830  -0.55649  -0.55446
 Alpha  occ. eigenvalues --   -0.55439  -0.55323  -0.55297  -0.55022  -0.55019
 Alpha  occ. eigenvalues --   -0.54839  -0.54592  -0.54546  -0.54419  -0.54409
 Alpha  occ. eigenvalues --   -0.54290  -0.54142  -0.54108  -0.54056  -0.53856
 Alpha  occ. eigenvalues --   -0.53705  -0.53658  -0.52911  -0.52863  -0.52223
 Alpha  occ. eigenvalues --   -0.51991  -0.50530  -0.50295  -0.49647  -0.49467
 Alpha  occ. eigenvalues --   -0.49301  -0.48886  -0.48783  -0.48721  -0.48650
 Alpha  occ. eigenvalues --   -0.48565  -0.47861  -0.47858  -0.47646  -0.47645
 Alpha  occ. eigenvalues --   -0.46949  -0.46949  -0.46751  -0.46733  -0.46624
 Alpha  occ. eigenvalues --   -0.46437  -0.45952  -0.45937  -0.45695  -0.45677
 Alpha  occ. eigenvalues --   -0.44867  -0.44858  -0.44280  -0.44255  -0.44190
 Alpha  occ. eigenvalues --   -0.44136  -0.43826  -0.43749  -0.42544  -0.42471
 Alpha  occ. eigenvalues --   -0.42316  -0.42184  -0.41218  -0.41207  -0.41003
 Alpha  occ. eigenvalues --   -0.41001  -0.38427  -0.38277  -0.38202  -0.38199
 Alpha  occ. eigenvalues --   -0.37968  -0.37889  -0.36929  -0.36574  -0.36546
 Alpha  occ. eigenvalues --   -0.36437  -0.36077  -0.35683  -0.35380  -0.35346
 Alpha  occ. eigenvalues --   -0.35259  -0.35124  -0.35060  -0.34747  -0.34701
 Alpha  occ. eigenvalues --   -0.34700  -0.34563  -0.34277  -0.34272  -0.34244
 Alpha  occ. eigenvalues --   -0.34095  -0.34024  -0.32175  -0.32151  -0.22932
 Alpha  occ. eigenvalues --   -0.22863
 Alpha virt. eigenvalues --   -0.04677  -0.04477  -0.04315  -0.04171   0.03697
 Alpha virt. eigenvalues --    0.03924   0.04626   0.05038   0.05914   0.05924
 Alpha virt. eigenvalues --    0.06398   0.06453   0.06487   0.06516   0.08385
 Alpha virt. eigenvalues --    0.08422   0.10760   0.10779   0.11733   0.11766
 Alpha virt. eigenvalues --    0.11817   0.11850   0.12013   0.12262   0.12452
 Alpha virt. eigenvalues --    0.12584   0.14057   0.14475   0.15064   0.15140
 Alpha virt. eigenvalues --    0.15228   0.15491   0.15605   0.15643   0.15727
 Alpha virt. eigenvalues --    0.15845   0.16070   0.16130   0.16142   0.16303
 Alpha virt. eigenvalues --    0.16532   0.17234   0.17564   0.17986   0.18150
 Alpha virt. eigenvalues --    0.18314   0.18552   0.18839   0.19096   0.19283
 Alpha virt. eigenvalues --    0.19654   0.20046   0.20396   0.20434   0.20540
 Alpha virt. eigenvalues --    0.20694   0.21040   0.21412   0.21611   0.21738
 Alpha virt. eigenvalues --    0.21987   0.22107   0.22308   0.22360   0.22517
 Alpha virt. eigenvalues --    0.22556   0.22739   0.22773   0.23636   0.23732
 Alpha virt. eigenvalues --    0.24255   0.24287   0.25052   0.25204   0.25351
 Alpha virt. eigenvalues --    0.25508   0.25671   0.25868   0.25929   0.26587
 Alpha virt. eigenvalues --    0.26859   0.26960   0.27703   0.27973   0.28054
 Alpha virt. eigenvalues --    0.28076   0.28817   0.28859   0.29201   0.29311
 Alpha virt. eigenvalues --    0.29461   0.29656   0.29683   0.29813   0.29829
 Alpha virt. eigenvalues --    0.30330   0.30923   0.31037   0.31685   0.31736
 Alpha virt. eigenvalues --    0.31880   0.31935   0.32773   0.33095   0.33096
 Alpha virt. eigenvalues --    0.33331   0.33415   0.33510   0.33918   0.34279
 Alpha virt. eigenvalues --    0.34932   0.35016   0.35268   0.35350   0.35524
 Alpha virt. eigenvalues --    0.35560   0.35624   0.35847   0.36119   0.36186
 Alpha virt. eigenvalues --    0.36510   0.36570   0.36571   0.36754   0.36971
 Alpha virt. eigenvalues --    0.37020   0.37161   0.37246   0.37597   0.37624
 Alpha virt. eigenvalues --    0.38049   0.38182   0.38642   0.38684   0.38903
 Alpha virt. eigenvalues --    0.39023   0.39393   0.39638   0.40103   0.40308
 Alpha virt. eigenvalues --    0.40418   0.40528   0.40648   0.40770   0.41385
 Alpha virt. eigenvalues --    0.41459   0.41543   0.41811   0.41969   0.42077
 Alpha virt. eigenvalues --    0.42205   0.42359   0.42505   0.42532   0.42618
 Alpha virt. eigenvalues --    0.42931   0.43049   0.43064   0.43186   0.43347
 Alpha virt. eigenvalues --    0.43410   0.43465   0.43760   0.43903   0.44217
 Alpha virt. eigenvalues --    0.44481   0.44508   0.44942   0.45116   0.45480
 Alpha virt. eigenvalues --    0.45876   0.45914   0.45976   0.46170   0.46368
 Alpha virt. eigenvalues --    0.46859   0.47253   0.47422   0.47989   0.48020
 Alpha virt. eigenvalues --    0.48354   0.48370   0.48458   0.48461   0.48637
 Alpha virt. eigenvalues --    0.48695   0.48892   0.48975   0.49010   0.49085
 Alpha virt. eigenvalues --    0.49459   0.49666   0.49718   0.50257   0.50392
 Alpha virt. eigenvalues --    0.50602   0.50684   0.50738   0.51392   0.51699
 Alpha virt. eigenvalues --    0.51853   0.52111   0.52174   0.52723   0.53031
 Alpha virt. eigenvalues --    0.53049   0.53402   0.53504   0.53892   0.54054
 Alpha virt. eigenvalues --    0.54083   0.54507   0.54692   0.54777   0.54908
 Alpha virt. eigenvalues --    0.55143   0.55248   0.55460   0.55872   0.55930
 Alpha virt. eigenvalues --    0.56063   0.56195   0.56215   0.56311   0.56465
 Alpha virt. eigenvalues --    0.56799   0.56876   0.57157   0.57227   0.57377
 Alpha virt. eigenvalues --    0.57512   0.57803   0.57950   0.57990   0.58043
 Alpha virt. eigenvalues --    0.58304   0.58434   0.58493   0.58508   0.58885
 Alpha virt. eigenvalues --    0.58990   0.59181   0.59436   0.59526   0.59586
 Alpha virt. eigenvalues --    0.59612   0.59756   0.59878   0.60013   0.60230
 Alpha virt. eigenvalues --    0.60355   0.60451   0.60528   0.60550   0.60636
 Alpha virt. eigenvalues --    0.61023   0.61266   0.61307   0.61426   0.61810
 Alpha virt. eigenvalues --    0.62194   0.62202   0.62397   0.62639   0.62690
 Alpha virt. eigenvalues --    0.62898   0.63065   0.63246   0.63355   0.63483
 Alpha virt. eigenvalues --    0.63898   0.64360   0.64393   0.64826   0.65103
 Alpha virt. eigenvalues --    0.65301   0.65876   0.66166   0.66343   0.66444
 Alpha virt. eigenvalues --    0.66996   0.67035   0.67198   0.67362   0.67582
 Alpha virt. eigenvalues --    0.67684   0.67838   0.67842   0.68054   0.68287
 Alpha virt. eigenvalues --    0.68572   0.68669   0.69046   0.69485   0.69745
 Alpha virt. eigenvalues --    0.69993   0.70145   0.70159   0.70477   0.70691
 Alpha virt. eigenvalues --    0.71035   0.71195   0.71381   0.71464   0.71758
 Alpha virt. eigenvalues --    0.71912   0.72046   0.72140   0.72152   0.72354
 Alpha virt. eigenvalues --    0.72507   0.72591   0.72706   0.72859   0.72964
 Alpha virt. eigenvalues --    0.73217   0.73441   0.73527   0.73725   0.73801
 Alpha virt. eigenvalues --    0.73990   0.74046   0.74106   0.74262   0.74313
 Alpha virt. eigenvalues --    0.74489   0.74863   0.74909   0.75050   0.75271
 Alpha virt. eigenvalues --    0.75291   0.75493   0.75514   0.75631   0.75766
 Alpha virt. eigenvalues --    0.75814   0.76416   0.76428   0.76580   0.76738
 Alpha virt. eigenvalues --    0.76936   0.77193   0.77277   0.77413   0.77683
 Alpha virt. eigenvalues --    0.77909   0.78130   0.78252   0.78522   0.78649
 Alpha virt. eigenvalues --    0.78781   0.78828   0.79072   0.79197   0.79247
 Alpha virt. eigenvalues --    0.79265   0.79486   0.79913   0.79926   0.80059
 Alpha virt. eigenvalues --    0.80173   0.80501   0.80519   0.80994   0.81046
 Alpha virt. eigenvalues --    0.81057   0.81231   0.81364   0.81429   0.81468
 Alpha virt. eigenvalues --    0.81548   0.81737   0.81837   0.82046   0.82125
 Alpha virt. eigenvalues --    0.82196   0.82439   0.82583   0.82680   0.82953
 Alpha virt. eigenvalues --    0.83206   0.83260   0.83352   0.83817   0.83878
 Alpha virt. eigenvalues --    0.83966   0.83973   0.84434   0.84618   0.84707
 Alpha virt. eigenvalues --    0.85226   0.85238   0.85420   0.85884   0.86270
 Alpha virt. eigenvalues --    0.86309   0.86556   0.86657   0.86910   0.86971
 Alpha virt. eigenvalues --    0.87089   0.87176   0.87196   0.87463   0.87518
 Alpha virt. eigenvalues --    0.87747   0.87858   0.87862   0.88334   0.88522
 Alpha virt. eigenvalues --    0.88700   0.88977   0.89068   0.89291   0.89607
 Alpha virt. eigenvalues --    0.89667   0.89682   0.89769   0.90118   0.90313
 Alpha virt. eigenvalues --    0.90850   0.90959   0.91017   0.91190   0.91499
 Alpha virt. eigenvalues --    0.91885   0.92275   0.92457   0.93118   0.93247
 Alpha virt. eigenvalues --    0.93608   0.94020   0.94137   0.94377   0.94507
 Alpha virt. eigenvalues --    0.94610   0.94868   0.94883   0.95121   0.95198
 Alpha virt. eigenvalues --    0.95362   0.96133   0.96743   0.96780   0.96898
 Alpha virt. eigenvalues --    0.97400   0.97539   0.97962   0.98090   0.98960
 Alpha virt. eigenvalues --    0.99724   0.99886   1.00463   1.00837   1.01011
 Alpha virt. eigenvalues --    1.01186   1.01486   1.02009   1.02054   1.02536
 Alpha virt. eigenvalues --    1.03262   1.03522   1.03572   1.03917   1.04203
 Alpha virt. eigenvalues --    1.04298   1.05032   1.05113   1.05223   1.05275
 Alpha virt. eigenvalues --    1.05526   1.06027   1.06067   1.06207   1.06958
 Alpha virt. eigenvalues --    1.07129   1.07636   1.07727   1.07749   1.08191
 Alpha virt. eigenvalues --    1.08252   1.08460   1.08892   1.09198   1.09980
 Alpha virt. eigenvalues --    1.10265   1.10327   1.10333   1.10773   1.10927
 Alpha virt. eigenvalues --    1.11268   1.11921   1.12251   1.12343   1.12561
 Alpha virt. eigenvalues --    1.12605   1.12767   1.13128   1.14128   1.14523
 Alpha virt. eigenvalues --    1.14891   1.14987   1.15230   1.15312   1.15924
 Alpha virt. eigenvalues --    1.16295   1.17039   1.17053   1.17338   1.17467
 Alpha virt. eigenvalues --    1.18306   1.18623   1.19107   1.19224   1.19512
 Alpha virt. eigenvalues --    1.19764   1.20831   1.21256   1.21322   1.21961
 Alpha virt. eigenvalues --    1.22236   1.22538   1.22951   1.23307   1.23781
 Alpha virt. eigenvalues --    1.23940   1.24034   1.25779   1.26107   1.26777
 Alpha virt. eigenvalues --    1.27931   1.27937   1.28656   1.28959   1.29298
 Alpha virt. eigenvalues --    1.29526   1.29693   1.30277   1.30391   1.30981
 Alpha virt. eigenvalues --    1.31625   1.31761   1.31800   1.31948   1.32411
 Alpha virt. eigenvalues --    1.32525   1.32849   1.33013   1.33144   1.33327
 Alpha virt. eigenvalues --    1.34000   1.34297   1.34319   1.34487   1.34587
 Alpha virt. eigenvalues --    1.34947   1.34952   1.35317   1.35582   1.35618
 Alpha virt. eigenvalues --    1.35708   1.36069   1.36174   1.36414   1.36606
 Alpha virt. eigenvalues --    1.36772   1.37074   1.37082   1.37255   1.37326
 Alpha virt. eigenvalues --    1.37383   1.37462   1.37683   1.37731   1.37752
 Alpha virt. eigenvalues --    1.37808   1.37833   1.37989   1.38006   1.38304
 Alpha virt. eigenvalues --    1.38685   1.39281   1.39362   1.39531   1.39883
 Alpha virt. eigenvalues --    1.39989   1.40042   1.40502   1.40691   1.40728
 Alpha virt. eigenvalues --    1.40769   1.40838   1.41103   1.41197   1.41287
 Alpha virt. eigenvalues --    1.41304   1.41708   1.41865   1.42307   1.42675
 Alpha virt. eigenvalues --    1.43259   1.43313   1.43742   1.43925   1.44913
 Alpha virt. eigenvalues --    1.45466   1.45483   1.45666   1.45881   1.45976
 Alpha virt. eigenvalues --    1.46155   1.46231   1.46861   1.46901   1.47795
 Alpha virt. eigenvalues --    1.48344   1.48480   1.49084   1.49360   1.49527
 Alpha virt. eigenvalues --    1.49765   1.49897   1.50103   1.50482   1.50528
 Alpha virt. eigenvalues --    1.50794   1.50825   1.51369   1.51708   1.52405
 Alpha virt. eigenvalues --    1.52801   1.53119   1.53312   1.54066   1.54631
 Alpha virt. eigenvalues --    1.54663   1.54885   1.55213   1.55922   1.56002
 Alpha virt. eigenvalues --    1.56093   1.56362   1.56818   1.57177   1.57979
 Alpha virt. eigenvalues --    1.58174   1.58812   1.58903   1.59323   1.59499
 Alpha virt. eigenvalues --    1.60382   1.61011   1.61197   1.61568   1.62017
 Alpha virt. eigenvalues --    1.62502   1.62517   1.62840   1.63110   1.63181
 Alpha virt. eigenvalues --    1.64345   1.64665   1.64949   1.65368   1.66013
 Alpha virt. eigenvalues --    1.66609   1.66666   1.67737   1.67834   1.68316
 Alpha virt. eigenvalues --    1.68968   1.69641   1.70548   1.70646   1.70726
 Alpha virt. eigenvalues --    1.70939   1.72362   1.72804   1.74361   1.74476
 Alpha virt. eigenvalues --    1.74921   1.74924   1.76585   1.76824   1.77585
 Alpha virt. eigenvalues --    1.77756   1.78061   1.78326   1.78968   1.79415
 Alpha virt. eigenvalues --    1.79677   1.79734   1.80015   1.80051   1.80146
 Alpha virt. eigenvalues --    1.80171   1.80234   1.80273   1.80412   1.80465
 Alpha virt. eigenvalues --    1.80565   1.80597   1.80689   1.80871   1.81243
 Alpha virt. eigenvalues --    1.81394   1.81431   1.81566   1.82441   1.82562
 Alpha virt. eigenvalues --    1.83184   1.83820   1.84223   1.84241   1.85069
 Alpha virt. eigenvalues --    1.85412   1.85746   1.86172   1.86209   1.86343
 Alpha virt. eigenvalues --    1.86983   1.86997   1.87125   1.87247   1.87317
 Alpha virt. eigenvalues --    1.87350   1.87584   1.87657   1.87681   1.87812
 Alpha virt. eigenvalues --    1.87918   1.87926   1.88046   1.88053   1.88139
 Alpha virt. eigenvalues --    1.88293   1.88320   1.88436   1.88669   1.88956
 Alpha virt. eigenvalues --    1.89079   1.89433   1.89479   1.89627   1.89871
 Alpha virt. eigenvalues --    1.90063   1.90199   1.90291   1.90404   1.90512
 Alpha virt. eigenvalues --    1.90602   1.90793   1.90860   1.91056   1.91154
 Alpha virt. eigenvalues --    1.91317   1.91352   1.91596   1.91626   1.91719
 Alpha virt. eigenvalues --    1.91774   1.91902   1.92475   1.92582   1.93127
 Alpha virt. eigenvalues --    1.93292   1.93397   1.93559   1.94140   1.94402
 Alpha virt. eigenvalues --    1.94649   1.94654   1.94669   1.95160   1.95495
 Alpha virt. eigenvalues --    1.95745   1.96022   1.96757   1.96962   1.97360
 Alpha virt. eigenvalues --    1.98005   1.98197   1.99819   2.00368   2.00996
 Alpha virt. eigenvalues --    2.01100   2.01896   2.02631   2.03177   2.03422
 Alpha virt. eigenvalues --    2.03611   2.03764   2.03827   2.04278   2.04635
 Alpha virt. eigenvalues --    2.04737   2.04767   2.05292   2.05610   2.05873
 Alpha virt. eigenvalues --    2.06194   2.06565   2.06716   2.06748   2.06894
 Alpha virt. eigenvalues --    2.07091   2.07253   2.07407   2.07615   2.07750
 Alpha virt. eigenvalues --    2.07782   2.07835   2.07846   2.07908   2.07913
 Alpha virt. eigenvalues --    2.08197   2.08390   2.08591   2.08900   2.09160
 Alpha virt. eigenvalues --    2.09224   2.09262   2.09709   2.09849   2.10197
 Alpha virt. eigenvalues --    2.10366   2.10594   2.10617   2.10830   2.11014
 Alpha virt. eigenvalues --    2.11118   2.11245   2.11376   2.11501   2.11588
 Alpha virt. eigenvalues --    2.11889   2.12156   2.12172   2.12589   2.12868
 Alpha virt. eigenvalues --    2.12928   2.12964   2.13692   2.13759   2.14072
 Alpha virt. eigenvalues --    2.14111   2.14492   2.14748   2.14771   2.14952
 Alpha virt. eigenvalues --    2.15218   2.15418   2.15943   2.15954   2.16402
 Alpha virt. eigenvalues --    2.17438   2.18267   2.18459   2.19025   2.19300
 Alpha virt. eigenvalues --    2.20166   2.20690   2.21354   2.21900   2.21996
[...]
 Alpha virt. eigenvalues --    3.70913   3.71343   3.71746   3.72392   3.72538
 Alpha virt. eigenvalues --    3.73020   3.73051   3.73236   3.73296   3.73416
 Alpha virt. eigenvalues --    3.73567   3.74313   3.74661   3.75306   3.75861
 Alpha virt. eigenvalues --    3.76147   3.76188   3.76318   3.76452   3.76601
 Alpha virt. eigenvalues --    3.76722   3.77428   3.77613   3.77810   3.78078
 Alpha virt. eigenvalues --    3.78349   3.78736   3.78778   3.79144   3.79619
 Alpha virt. eigenvalues --    3.79621   3.80949   3.81250   3.81259   3.81556
 Alpha virt. eigenvalues --    3.82115   3.82580   3.82691   3.83041   3.83306
 Alpha virt. eigenvalues --    3.83529   3.84051   3.84398   3.84860   3.84979
 Alpha virt. eigenvalues --    3.85197   3.85250   3.85340   3.85712   3.85946
 Alpha virt. eigenvalues --    3.86244   3.88499   3.88753   3.89422   3.90073
 Alpha virt. eigenvalues --    3.90362   3.90692   3.92116   3.92338   3.93474
 Alpha virt. eigenvalues --    3.93643   3.94100   3.94192   3.96692   3.96793
 Alpha virt. eigenvalues --    3.97681   3.97758   3.98752   3.98760   3.99069
 Alpha virt. eigenvalues --    3.99783   4.00026   4.00323   4.01605   4.01696
 Alpha virt. eigenvalues --    4.02244   4.02503   4.03337   4.03378   4.03956
 Alpha virt. eigenvalues --    4.04404   4.04626   4.05004   4.05170   4.05271
 Alpha virt. eigenvalues --    4.05546   4.06037   4.06210   4.06227   4.07628
 Alpha virt. eigenvalues --    4.07855   4.09138   4.09364   4.09843   4.09940
 Alpha virt. eigenvalues --    4.10120   4.10193   4.10468   4.10471   4.10604
 Alpha virt. eigenvalues --    4.10615   4.11615   4.12289   4.13623   4.13709
 Alpha virt. eigenvalues --    4.14202   4.14676   4.14898   4.15183   4.16606
 Alpha virt. eigenvalues --    4.16960   4.18759   4.18795   4.20357   4.20517
 Alpha virt. eigenvalues --    4.21884   4.22207   4.23753   4.23986   4.24649
 Alpha virt. eigenvalues --    4.25485   4.25510   4.26144   4.26727   4.26855
 Alpha virt. eigenvalues --    4.28627   4.28685   4.28810   4.28896   4.29140
 Alpha virt. eigenvalues --    4.29152   4.30785   4.31400   4.33532   4.33874
 Alpha virt. eigenvalues --    4.35040   4.35425   4.35833   4.35894   4.36151
 Alpha virt. eigenvalues --    4.36330   4.36867   4.36904   4.37945   4.38298
 Alpha virt. eigenvalues --    4.38881   4.38901   4.39819   4.40083   4.41337
 Alpha virt. eigenvalues --    4.42637   4.43060   4.43733   4.44312   4.44704
 Alpha virt. eigenvalues --    4.45537   4.45654   4.47985   4.48176   4.51171
 Alpha virt. eigenvalues --    4.51286   4.52429   4.52578   4.53284   4.53391
 Alpha virt. eigenvalues --    4.54507   4.54787   4.64152   4.64244   4.65090
 Alpha virt. eigenvalues --    4.65092   4.65174   4.65272   4.69191   4.69236
 Alpha virt. eigenvalues --    4.69594   4.69634   4.80004   4.80015   4.81338
 Alpha virt. eigenvalues --    4.81439   4.82852   4.83008   4.84724   4.84817
 Alpha virt. eigenvalues --    4.86061   4.86096   4.87165   4.87331   4.90110
 Alpha virt. eigenvalues --    4.90209   4.90969   4.91052   4.91384   4.91762
 Alpha virt. eigenvalues --    4.94043   4.94450   4.98554   4.98575   4.99867
 Alpha virt. eigenvalues --    4.99947   5.00325   5.00842   5.01274   5.01567
 Alpha virt. eigenvalues --    5.04513   5.05187   5.05458   5.05499   5.06158
 Alpha virt. eigenvalues --    5.06290   5.06791   5.06813   5.07068   5.07251
 Alpha virt. eigenvalues --    5.07937   5.07955   5.08354   5.08510   5.09003
 Alpha virt. eigenvalues --    5.09053   5.09606   5.09657   5.11294   5.11359
 Alpha virt. eigenvalues --    5.12940   5.13122   5.14819   5.14902   5.17650
 Alpha virt. eigenvalues --    5.17655   5.21010   5.21160   5.21900   5.21961
 Alpha virt. eigenvalues --    5.22971   5.23139   5.25430   5.25808   5.26366
 Alpha virt. eigenvalues --    5.26436   5.29842   5.29886   5.35323   5.35327
 Alpha virt. eigenvalues --    5.36354   5.36379   5.37622   5.37915   5.38698
 Alpha virt. eigenvalues --    5.38905   5.41154   5.41187   5.43288   5.43523
 Alpha virt. eigenvalues --    5.46335   5.46528   5.46643   5.46742   5.48404
 Alpha virt. eigenvalues --    5.48732   5.48976   5.49073   5.51792   5.51890
 Alpha virt. eigenvalues --    5.52006   5.52908   5.60290   5.60376   5.62218
 Alpha virt. eigenvalues --    5.62424   5.65308   5.65376   5.67648   5.67868
 Alpha virt. eigenvalues --    5.70248   5.70605   5.71187   5.71430   5.72759
 Alpha virt. eigenvalues --    5.73085   5.73668   5.73991   5.82990   5.83246
 Alpha virt. eigenvalues --    5.87517   5.87780   6.66293   6.66299   6.66553
 Alpha virt. eigenvalues --    6.66554   6.67030   6.67051   6.73044   6.73085
 Alpha virt. eigenvalues --    6.74431   6.74433   6.75680   6.75683   6.75756
 Alpha virt. eigenvalues --    6.75782  21.69654  21.71060  21.76797  21.76952
 Alpha virt. eigenvalues --   21.78226  21.78319  21.87609  21.89510  21.95067
 Alpha virt. eigenvalues --   21.99065  21.99982  22.01860  22.07217  22.07435
 Alpha virt. eigenvalues --   22.09632  22.10271  22.11152  22.11921  22.15945
 Alpha virt. eigenvalues --   22.16336  22.19231  22.19554  22.20651  22.20781
 Alpha virt. eigenvalues --   22.20941  22.21302  22.21734  22.21861  22.22125
 Alpha virt. eigenvalues --   22.22272  22.26703  22.28214  22.32504  22.32637
 Alpha virt. eigenvalues --   22.34894  22.35476  22.36996  22.38486  22.48538
 Alpha virt. eigenvalues --   22.48558  22.48571  22.48651  22.49153  22.49191
 Alpha virt. eigenvalues --   22.55447  22.56298  22.60950  22.61012  22.61629
 Alpha virt. eigenvalues --   22.61939  22.64052  22.64250  22.64751  22.65019
 Alpha virt. eigenvalues --   22.69065  22.70272  22.76851  22.76902  22.77145
 Alpha virt. eigenvalues --   22.78205  22.84249  22.84510  22.85951  22.87586
 Alpha virt. eigenvalues --   23.33417  23.33437  23.37105  23.37115  23.37811
 Alpha virt. eigenvalues --   23.37870  23.43659  23.43701  32.19242  32.19657
 Alpha virt. eigenvalues --   32.21246  32.21357  32.26708  32.27036  32.33130
 Alpha virt. eigenvalues --   32.33139  32.40422  32.41175  32.47731  32.47919
 Alpha virt. eigenvalues --   32.59483  32.59586  32.61050  32.61345  32.62914
 Alpha virt. eigenvalues --   32.63183  32.68227  32.70205
          Condensed to atoms (all electrons):
 Mulliken charges:
               1
     1  C   -0.096215
     2  C   -0.096247
     3  C   -0.201297
     4  C    0.040167
     5  C    0.060922
     6  C   -0.201275
     7  C    0.367500
     8  C    0.379616
     9  N   -0.324675
    10  N   -0.558081
    11  N   -0.557215
    12  H    0.123219
    13  H    0.122960
    14  H    0.143279
    15  H    0.142761
    16  C    0.090413
    17  C   -0.175489
    18  C   -0.326930
    19  C    0.175915
    20  C    0.137198
    21  C   -0.205227
    22  C    0.306643
    23  C    0.354433
    24  N   -0.354506
    25  N   -0.577909
    26  H    0.140551
    27  H    0.150098
    28  H    0.141187
    29  C   -0.094882
    30  C   -0.094355
    31  C   -0.200961
    32  C    0.076431
    33  C    0.064772
    34  C   -0.199470
    35  C    0.336391
    36  C    0.381166
    37  N   -0.332407
    38  N   -0.563585
    39  H    0.124832
    40  H    0.124716
    41  H    0.144452
    42  H    0.144872
    43  C   -0.097067
    44  C   -0.094489
    45  C   -0.196265
    46  C    0.074916
    47  C    0.042538
    48  C   -0.211813
    49  C    0.352772
    50  C    0.405837
    51  N   -0.320970
    52  H    0.123431
    53  H    0.123965
    54  H    0.144000
    55  H    0.145061
    56  Zn   0.145666
    57  C    0.341588
    58  C   -0.030456
    59  C   -0.054771
    60  H    0.161663
    61  H    0.187409
    62  N   -0.330834
    63  N   -0.219821
    64  C   -0.356876
    65  H    0.172532
    66  H    0.200398
    67  H    0.177805
    68  C    0.090193
    69  C   -0.175211
    70  C   -0.326704
    71  C   -0.205206
    72  H    0.140497
    73  C    0.175787
    74  H    0.150091
    75  C    0.137244
    76  H    0.141171
    77  C    0.306745
    78  C    0.354412
    79  N   -0.354617
    80  N   -0.577917
    81  N   -0.557209
    82  Zn   0.145760
    83  C    0.405873
    84  C    0.367483
    85  N   -0.324701
    86  N   -0.332372
    87  N   -0.320994
    88  C    0.042554
    89  C    0.040156
    90  C    0.379554
    91  C    0.336451
    92  C    0.381130
    93  C    0.352774
    94  C    0.074933
    95  C   -0.211841
    96  C   -0.201311
    97  C    0.060944
    98  N   -0.558057
    99  C    0.076373
   100  C    0.064798
   101  N   -0.563593
   102  C   -0.196252
   103  C   -0.094482
   104  H    0.145088
   105  C   -0.096216
   106  H    0.143270
   107  C   -0.201281
   108  C   -0.200962
   109  C   -0.199467
   110  C   -0.097069
   111  H    0.144001
   112  H    0.123970
   113  C   -0.096249
   114  H    0.123217
   115  H    0.142761
   116  C   -0.094879
   117  H    0.144450
   118  C   -0.094355
   119  H    0.144874
   120  H    0.123431
   121  H    0.122959
   122  H    0.124832
   123  H    0.124717
   124  C    0.341085
   125  N   -0.330614
   126  N   -0.219771
   127  C   -0.054773
   128  C   -0.030392
   129  C   -0.356816
   130  H    0.187406
   131  H    0.161648
   132  H    0.177753
   133  H    0.200380
   134  H    0.172556
 Sum of Mulliken charges =  -0.00000
 Mulliken charges with hydrogens summed into heavy atoms:
               1
     1  C    0.027005
     2  C    0.026713
     3  C   -0.058017
     4  C    0.040167
     5  C    0.060922
     6  C   -0.058514
     7  C    0.367500
     8  C    0.379616
     9  N   -0.324675
    10  N   -0.558081
    11  N   -0.557215
    16  C    0.090413
    17  C   -0.034938
    18  C   -0.176832
    19  C    0.175915
    20  C    0.137198
    21  C   -0.064040
    22  C    0.306643
    23  C    0.354433
    24  N   -0.354506
    25  N   -0.577909
    29  C    0.029950
    30  C    0.030361
    31  C   -0.056509
    32  C    0.076431
    33  C    0.064772
    34  C   -0.054598
    35  C    0.336391
    36  C    0.381166
    37  N   -0.332407
    38  N   -0.563585
    43  C    0.026363
    44  C    0.029476
    45  C   -0.052265
    46  C    0.074916
    47  C    0.042538
    48  C   -0.066752
    49  C    0.352772
    50  C    0.405837
    51  N   -0.320970
    56  Zn   0.145666
    57  C    0.341588
    58  C    0.131207
    59  C    0.132637
    62  N   -0.330834
    63  N   -0.219821
    64  C    0.193859
    68  C    0.090193
    69  C   -0.034714
    70  C   -0.176613
    71  C   -0.064035
    73  C    0.175787
    75  C    0.137244
    77  C    0.306745
    78  C    0.354412
    79  N   -0.354617
    80  N   -0.577917
    81  N   -0.557209
    82  Zn   0.145760
    83  C    0.405873
    84  C    0.367483
    85  N   -0.324701
    86  N   -0.332372
    87  N   -0.320994
    88  C    0.042554
    89  C    0.040156
    90  C    0.379554
    91  C    0.336451
    92  C    0.381130
    93  C    0.352774
    94  C    0.074933
    95  C   -0.066753
    96  C   -0.058041
    97  C    0.060944
    98  N   -0.558057
    99  C    0.076373
   100  C    0.064798
   101  N   -0.563593
   102  C   -0.052250
   103  C    0.029489
   105  C    0.027001
   107  C   -0.058519
   108  C   -0.056512
   109  C   -0.054593
   110  C    0.026362
   113  C    0.026709
   116  C    0.029952
   118  C    0.030362
   124  C    0.341085
   125  N   -0.330614
   126  N   -0.219771
   127  C    0.132633
   128  C    0.131256
   129  C    0.193874
 Electronic spatial extent (au):  <R**2>=          99347.4813
 Charge=             -0.0000 electrons
 Dipole moment (field-independent basis, Debye):
    X=              0.0005    Y=              0.0056    Z=             -0.0018  Tot=              0.0059
 Quadrupole moment (field-independent basis, Debye-Ang):
   XX=           -532.2141   YY=           -510.5379   ZZ=           -504.7844
   XY=             -8.3148   XZ=            -52.5482   YZ=             11.8723
 Traceless Quadrupole moment (field-independent basis, Debye-Ang):
   XX=            -16.3686   YY=              5.3075   ZZ=             11.0610
   XY=             -8.3148   XZ=            -52.5482   YZ=             11.8723
 Octapole moment (field-independent basis, Debye-Ang**2):
  XXX=             -0.0053  YYY=             -0.0557  ZZZ=             -0.1476  XYY=             -0.0411
  XXY=              0.0095  XXZ=             -0.0551  XZZ=              0.0751  YZZ=              0.1986
  YYZ=              0.0798  XYZ=             -0.0883
 Hexadecapole moment (field-independent basis, Debye-Ang**3):
 XXXX=         -89262.7635 YYYY=         -27928.3990 ZZZZ=          -8065.7855 XXXY=            152.3809
 XXXZ=          -1405.5336 YYYX=           -108.4831 YYYZ=           -115.3560 ZZZX=          -1250.2833
 ZZZY=            473.8848 XXYY=         -20025.8075 XXZZ=         -18176.6719 YYZZ=          -7065.9392
 XXYZ=             72.4406 YYXZ=             32.1084 ZZXY=           -316.7146
 N-N= 1.945747541376D+04 E-N=-5.641362875413D+04  KE= 7.392072566083D+03
 Leave Link  601 at Wed May 21 09:32:49 2025, MaxMem=  4294967296 cpu:         8.4
 (Enter /home/sergey/g09/l9999.exe)

 Test job not archived.
 1\1\ WCSS.PL-BEM-KETKOV-PC1\SP\RLC-BLYP TD-FC\Gen\C72H40N20Zn2\SERGEY\
 21-May-2025\0\\#p td(nstates=8) lc-blyp/gen geom=check guess=read iop(
 3/107=0400000000, 3/108=0400000000)\\geom b3pw/631gd\\0,1\C,0,7.090383
 6725,-1.3648874014,-4.9837199369\C,0,6.8299152775,-1.4431120346,-6.362
 4402592\C,0,6.0875626865,-1.0243427778,-4.0790544109\C,0,4.8154766909,
 -0.7712582227,-4.5865113741\C,0,4.5550695325,-0.8496352973,-5.96575866
 9\C,0,5.5596146671,-1.1829695832,-6.8709898439\C,0,3.5557183113,-0.385
 8582519,-3.9559753942\C,0,3.1434138343,-0.5140562777,-6.1330595599\N,0
 ,2.5910264685,-0.2583915487,-4.9144723487\N,0,2.5530417831,-0.45462080
 62,-7.3236857491\N,0,3.4369932861,-0.1696790135,-2.6521891705\H,0,8.09
 3958877,-1.5718944998,-4.6204360704\H,0,7.6365769492,-1.7088137267,-7.
 0411327949\H,0,6.2821980414,-0.9562343689,-3.0126879783\H,0,5.35044821
 45,-1.2349160835,-7.9354982953\C,0,1.4255828098,1.4116095066,1.8663690
 959\C,0,2.7217828262,0.8904820168,1.656873236\C,0,0.5293438445,1.54354
 87236,0.8008564413\C,0,0.9477518453,1.1266232057,-0.4580758023\C,0,2.2
 417760441,0.6141650766,-0.6635097869\C,0,3.1433027747,0.496256073,0.39
 20808011\C,0,0.2722809456,1.0684298871,-1.7485459969\C,0,2.3245440392,
 0.2782775806,-2.0803318758\N,0,1.1233782032,0.5403137423,-2.6726143966
 \N,0,-0.9707311005,1.5001606349,-1.9310112614\H,0,3.3922140033,0.79605
 24633,2.5065748616\H,0,-0.4746873981,1.9296426586,0.952221973\H,0,4.13
 84466927,0.0941141284,0.2299077893\C,0,0.3178791515,0.1539455827,-11.1
 744956912\C,0,-0.9985818772,0.5931012272,-10.9535106459\C,0,1.17877254
 26,-0.1060569813,-10.110783518\C,0,0.6868897834,0.0759657964,-8.820595
 3644\C,0,-0.6297411198,0.5151490431,-8.5997446523\C,0,-1.4875384128,0.
 783728039,-9.6633037655\C,0,1.2902220302,-0.084684686,-7.4994359109\C,
 0,-0.790388402,0.6130285143,-7.151017883\N,0,0.3679497224,0.2266693731
 ,-6.5412105867\N,0,-1.8998582709,1.064815732,-6.5800234622\H,0,0.66829
 92853,0.0187978515,-12.1947071325\H,0,-1.6429188358,0.789606809,-11.80
 67979461\H,0,2.2001354591,-0.4382089819,-10.2722093426\H,0,-2.50103129
 09,1.1298263946,-9.4830244164\C,0,-5.3239508178,2.9339820079,-4.356502
 6885\C,0,-5.0487185111,3.069848978,-2.985037895\C,0,-4.3989886735,2.35
 64329711,-5.222783161\C,0,-3.1958063618,1.909930408,-4.6816949759\C,0,
 -2.9197637743,2.0465874559,-3.31019915\C,0,-3.8415929609,2.6319932845,
 -2.4454560922\C,0,-2.0188947479,1.2802637542,-5.2743172324\C,0,-1.5840
 924375,1.4925280343,-3.1062848452\N,0,-1.1014642488,1.0288780666,-4.29
 76002794\H,0,-6.2753371602,3.2888468561,-4.7448681864\H,0,-5.792469968
 8,3.5269248461,-2.3370370693\H,0,-4.6004425439,2.2528948112,-6.2849549
 012\H,0,-3.6190035784,2.7373896497,-1.3876166941\Zn,0,0.5733961609,-0.
 1158363027,-4.5278767759\C,0,1.0259368996,1.8366806547,3.2228923649\C,
 0,0.5668541902,3.1721268381,4.9266728252\C,0,0.4151837228,1.871152596,
 5.306631062\H,0,0.4392096358,4.1008415647,5.4624086246\H,0,0.114024684
 4,1.4741428333,6.2645642303\N,0,0.7011683901,1.0467560322,4.2443068463
 \N,0,0.9532839413,3.1416197028,3.6062492699\C,0,1.2531064308,4.3087878
 307,2.7962653705\H,0,2.0153909008,4.9182562577,3.2897370878\H,0,1.6279
 706121,3.9813549902,1.8265000257\H,0,0.3508148039,4.9089404514,2.64598
 32964\C,0,-0.6179610577,-2.5325696324,-2.0305791237\C,0,-1.9141695169,
 -2.0117017638,-1.8205535597\C,0,0.2787443496,-2.6643334971,-0.96543245
 64\C,0,-2.3352421874,-1.6175414531,-0.5555838743\H,0,-2.584976077,-1.9
 173883491,-2.6699745519\C,0,-0.1392454924,-2.2475581348,0.2936930279\H
 ,0,1.2827560799,-3.050308321,-1.1172214134\C,0,-1.4332814675,-1.735333
 2744,0.4996453522\H,0,-3.3303942617,-1.2155839192,-0.39299713\C,0,0.53
 66295626,-2.1894968735,1.5839639307\C,0,-1.5156256139,-1.3996818397,1.
 9165512499\N,0,-0.3142360096,-1.6616728759,2.5084040962\N,0,1.77972934
 67,-2.6211683884,1.7659865257\N,0,-2.6279613247,-0.9520058299,2.488841
 3135\Zn,0,0.2362563764,-1.0057127741,4.3636592821\C,0,2.3934229898,-2.
 6137181671,2.941083914\C,0,-2.7463179443,-0.7361296266,3.7927137359\N,
 0,-1.781309802,-0.8636607892,4.7508857383\N,0,0.442310594,-1.348786676
 5,6.376855894\N,0,1.9111373872,-2.1503048839,4.1326337846\C,0,3.729180
 7944,-3.1677614988,3.1444880165\C,0,-4.0059436453,-0.3510748085,4.4237
 181168\C,0,-2.3333739127,-0.6083663669,5.9697009664\C,0,-0.4797101196,
 -1.037747596,7.3354343097\C,0,1.6008857181,-1.7351032156,6.9862275227\
 C,0,2.828878984,-2.4018435159,5.1090201978\C,0,4.0056420712,-3.0313428
 023,4.5159200005\C,0,4.6507591587,-3.7529693191,2.2793461225\C,0,-5.27
 82272914,-0.0980766875,3.9167084636\C,0,-3.7451314925,-0.2729814118,5.
 8029061243\N,0,-1.7426373772,-0.6679712874,7.160140536\C,0,0.124053467
 1,-1.1985825776,8.6563746349\C,0,1.4406766841,-1.6375369965,8.43502367
 01\N,0,2.7102342062,-2.1866565297,6.4148041718\C,0,5.2090102928,-3.477
 8939447,5.0565530908\C,0,5.8580724333,-4.1908713479,2.8184722081\H,0,4
 .4278404395,-3.8581782092,1.2215576706\C,0,-6.2808279043,0.2420904233,
 4.8217583118\H,0,-5.4731789863,-0.1659734041,2.8503861801\C,0,-4.74945
 71234,0.0599788629,6.7085213888\C,0,-0.3674470775,-1.0169060953,9.9467
 588624\C,0,2.2988486967,-1.9062210258,9.4982532031\C,0,6.1337262767,-4
 .0552439616,4.1898752065\H,0,5.4107919974,-3.374544369,6.1186808123\H,
 0,6.6016422777,-4.6477951147,2.1701560622\C,0,-6.0199529408,0.32003516
 03,6.2004191635\H,0,-7.2845481729,0.4490174881,4.4588291784\H,0,-4.539
 9757343,0.1117067837,7.7729789549\C,0,0.4938196047,-1.2770123164,11.01
 01434898\H,0,-1.3888067924,-0.6849361596,10.1085808443\C,0,1.810274497
 9,-1.7159345617,10.7886539065\H,0,3.3123322836,-2.2521389317,9.3175756
 484\H,0,7.0852491288,-4.4101392864,4.5778783846\H,0,-6.8264518313,0.58
 54471979,6.8794186143\H,0,0.1437003494,-1.1421301547,12.0304936089\H,0
 ,2.4549067275,-1.9125269425,11.6416979903\C,0,-0.218739315,-2.95783868
 09,-3.3872045176\N,0,0.1078401279,-2.1682458506,-4.4082821841\N,0,-0.1
 480856208,-4.2628198266,-3.7708238455\C,0,0.3929569187,-2.9928784539,-
 5.4706495315\C,0,0.2389295973,-4.2936840687,-5.0910583724\C,0,-0.45021
 5934,-5.4296376699,-2.9612016562\H,0,0.6952178481,-2.5961587569,-6.428
 3536739\H,0,0.3652616038,-5.2224888942,-5.6269494275\H,0,0.4505769661,
 -6.0324285806,-2.8125439808\H,0,-0.82281116,-5.1017397326,-1.990722070
 3\H,0,-1.2149171968,-6.0366500024,-3.4539798124\\Version=ES64L-G09RevE
 .01\State=1-A\HF=-7412.2444569\RMSD=8.135e-09\PG=C01 [X(C72H40N20Zn2)]
 \\@


 WE TEND TO MEET ANY NEW SITUATION BY REORGANIZING. IT CAN BE A
 WONDERFUL METHOD FOR CREATING THE ILLUSION OF PROGRESS WHILE PRODUCING
 CONFUSION, INEFFICIENCY, AND DEMORALIZATION.
     -- PETRONIUS ARBITER, 210 B.C.
 Job cpu time:       4 days 10 hours 35 minutes 49.9 seconds.
 File lengths (MBytes):  RWF=  12243 Int=      0 D2E=      0 Chk=   1968 Scr=      1
 Normal termination of Gaussian 09 at Wed May 21 09:32:50 2025.
