 Entering Gaussian System, Link 0=g09
 Input=ZnPcXRD7.gjf
 Output=ZnPcXRD7.log
 Initial command:
 /opt/g09/l1.exe "/opt/scr/Gau-35944.inp" -scrdir="/opt/scr/"
 Entering Link 1 = /opt/g09/l1.exe PID=     35946.
  
 Copyright (c) 1988,1990,1992,1993,1995,1998,2003,2009,2015,
            Gaussian, Inc.  All Rights Reserved.
  
 This is part of the Gaussian(R) 09 program.  It is based on
 the Gaussian(R) 03 system (copyright 2003, Gaussian, Inc.),
 the Gaussian(R) 98 system (copyright 1998, Gaussian, Inc.),
 the Gaussian(R) 94 system (copyright 1995, Gaussian, Inc.),
 the Gaussian 92(TM) system (copyright 1992, Gaussian, Inc.),
 the Gaussian 90(TM) system (copyright 1990, Gaussian, Inc.),
 the Gaussian 88(TM) system (copyright 1988, Gaussian, Inc.),
 the Gaussian 86(TM) system (copyright 1986, Carnegie Mellon
 University), and the Gaussian 82(TM) system (copyright 1983,
 Carnegie Mellon University). Gaussian is a federally registered
 trademark of Gaussian, Inc.
  
 This software contains proprietary and confidential information,
 including trade secrets, belonging to Gaussian, Inc.
  
 This software is provided under written license and may be
 used, copied, transmitted, or stored only in accord with that
 written license.
  
 The following legend is applicable only to US Government
 contracts under FAR:
  
                    RESTRICTED RIGHTS LEGEND
  
 Use, reproduction and disclosure by the US Government is
 subject to restrictions as set forth in subparagraphs (a)
 and (c) of the Commercial Computer Software - Restricted
 Rights clause in FAR 52.227-19.
  
 Gaussian, Inc.
 340 Quinnipiac St., Bldg. 40, Wallingford CT 06492
  
  
 ---------------------------------------------------------------
 Warning -- This program may not be used in any manner that
 competes with the business of Gaussian, Inc. or will provide
 assistance to any competitor of Gaussian, Inc.  The licensee
 of this program is prohibited from giving any competitor of
 Gaussian, Inc. access to this program.  By using this program,
 the user acknowledges that Gaussian, Inc. is engaged in the
 business of creating and licensing software in the field of
 computational chemistry and represents and warrants to the
 licensee that it is not a competitor of Gaussian, Inc. and that
 it will not use this program in any manner prohibited above.
 ---------------------------------------------------------------
  

 Cite this work as:
 Gaussian 09, Revision E.01,
 M. J. Frisch, G. W. Trucks, H. B. Schlegel, G. E. Scuseria, 
 M. A. Robb, J. R. Cheeseman, G. Scalmani, V. Barone, B. Mennucci, 
 G. A. Petersson, H. Nakatsuji, M. Caricato, X. Li, H. P. Hratchian, 
 A. F. Izmaylov, J. Bloino, G. Zheng, J. L. Sonnenberg, M. Hada, 
 M. Ehara, K. Toyota, R. Fukuda, J. Hasegawa, M. Ishida, T. Nakajima, 
 Y. Honda, O. Kitao, H. Nakai, T. Vreven, J. A. Montgomery, Jr., 
 J. E. Peralta, F. Ogliaro, M. Bearpark, J. J. Heyd, E. Brothers, 
 K. N. Kudin, V. N. Staroverov, T. Keith, R. Kobayashi, J. Normand, 
 K. Raghavachari, A. Rendell, J. C. Burant, S. S. Iyengar, J. Tomasi, 
 M. Cossi, N. Rega, J. M. Millam, M. Klene, J. E. Knox, J. B. Cross, 
 V. Bakken, C. Adamo, J. Jaramillo, R. Gomperts, R. E. Stratmann, 
 O. Yazyev, A. J. Austin, R. Cammi, C. Pomelli, J. W. Ochterski, 
 R. L. Martin, K. Morokuma, V. G. Zakrzewski, G. A. Voth, 
 P. Salvador, J. J. Dannenberg, S. Dapprich, A. D. Daniels, 
 O. Farkas, J. B. Foresman, J. V. Ortiz, J. Cioslowski, 
 and D. J. Fox, Gaussian, Inc., Wallingford CT, 2013.
 
 ******************************************
 Gaussian 09:  ES64L-G09RevE.01 30-Nov-2015
                11-Jun-2025 
 ******************************************
 %chk=ZnPcXRD7.chk
 %nproc=2
 Will use up to    2 processors via shared memory.
 %mem=8GB
 --------------------------------
 #p opt=readopt b3pw91/6-31g(d,p)
 --------------------------------
 1/14=-1,18=20,19=15,26=3,29=6000,38=1/1,3;
 2/9=110,12=2,17=6,18=5,40=1/2;
 3/5=1,6=6,7=101,11=2,16=1,25=1,30=1,71=1,74=-6/1,2,3;
 4//1;
 5/5=2,38=5/2;
 6/7=2,8=2,9=2,10=2,28=1/1;
 7//1,2,3,16;
 1/14=-1,18=20,19=15,26=3/3(2);
 2/9=110/2;
 99//99;
 2/9=110/2;
 3/5=1,6=6,7=101,11=2,16=1,25=1,30=1,71=1,74=-6/1,2,3;
 4/5=5,16=3,69=1/1;
 5/5=2,38=5/2;
 7//1,2,3,16;
 1/14=-1,18=20,19=15,26=3/3(-5);
 2/9=110/2;
 6/7=2,8=2,9=2,10=2,19=2,28=1/1;
 99/9=1/99;
 Leave Link    1 at Wed Jun 11 01:31:30 2025, MaxMem=  1073741824 cpu:         0.1
 (Enter /opt/g09/l101.exe)
 -------------------
 Title Card Required
 -------------------
 Symbolic Z-matrix:
 Charge =  0 Multiplicity = 1
 Zn
 N                    1     3.35714 
 N                    1     1.98017  2     45.5564 
 N                    3     2.42352  1     100.63374  2    -179.99501  0
 N                    1     1.97842  3     88.96625  4     0.16046  0
 C                    2     1.33371  1     62.02849  5     1.01201  0
 C                    6     1.45022  2     123.08399  1     177.6015  0
 C                    7     1.39286  6     131.67789  2     0.13123  0
 C                    8     1.38822  7     117.08983  6    -178.90109  0
 C                    9     1.3978   8     121.69643  7    -0.33289  0
 C                    10    1.3957   9     121.25169  8    -0.1466   0
 C                    11    1.39355  10    117.10448  9     0.20226  0
 C                    4     1.32745  3     26.57803  1     177.20242  0
 C                    4     1.33072  3     96.46576  1    -1.32613  0
 C                    14    1.45802  4     123.70537  3    -178.18323  0
 C                    15    1.39547  14    132.94686  4     2.12033  0
 C                    16    1.38879  15    117.56091  14    178.70808  0
 C                    17    1.39501  16    121.5405  15    0.3059   0
 C                    18    1.39103  17    121.32704  16   -0.03811  0
 C                    19    1.39197  18    117.28705  17   -0.43859  0
 C                    5     1.36393  1     124.58101  3     179.40822  0
 N                    21    1.33182  5     127.98886  1     1.70467  0
 N                    1     1.98017  5     91.03375  21   -0.59178  0
 N                    23    2.42352  1     100.63374  5     179.83954  0
 N                    1     1.97842  23    88.96625  24   -0.16046  0
 C                    22    1.33371  21    123.94231  5    -2.77493  0
 C                    26    1.45022  22    123.08399  21   -175.7653  0
 C                    27    1.39286  26    131.67789  22   -0.13123  0
 C                    28    1.38822  27    117.08983  26    178.90109  0
 C                    29    1.3978   28    121.69643  27    0.33289  0
 C                    30    1.3957   29    121.25169  28    0.1466   0
 C                    31    1.39355  30    117.10448  29   -0.20226  0
 C                    24    1.32745  23    26.57803  1    -177.20242  0
 C                    24    1.33072  23    96.46576  1     1.32613  0
 C                    34    1.45802  24    123.70537  23    178.18323  0
 C                    35    1.39547  34    132.94686  24   -2.12033  0
 C                    36    1.38879  35    117.56091  34   -178.70808  0
 C                    37    1.39501  36    121.5405  35   -0.3059   0
 C                    38    1.39103  37    121.32704  36    0.03811  0
 C                    39    1.39197  38    117.28705  37    0.43859  0
 C                    2     1.33182  1     61.93826  5     179.2858  0
 Bq                   22    3.23127  21    90.22684  5     94.48024  0
 H                    36   B1       35   A1       34   D1       0
 H                    37   B2       36   A2       35   D2       0
 H                    38   B3       37   A3       36   D3       0
 H                    39   B4       38   A4       37   D4       0
 H                    8    B5       7    A5       6    D5       0
 H                    9    B6       8    A6       7    D6       0
 H                    10   B7       9    A7       8    D7       0
 H                    11   B8       10   A8       9    D8       0
 H                    16   B9       15   A9       14   D9       0
 H                    17   B10      16   A10      15   D10      0
 H                    18   B11      17   A11      16   D11      0
 H                    19   B12      18   A12      17   D12      0
 H                    28   B13      27   A13      26   D13      0
 H                    29   B14      28   A14      27   D14      0
 H                    30   B15      29   A15      28   D15      0
 H                    31   B16      30   A16      29   D16      0
       Variables:
  B1                    1.07                     
  B2                    1.07                     
  B3                    1.07                     
  B4                    1.07                     
  B5                    1.07                     
  B6                    1.07                     
  B7                    1.07                     
  B8                    1.07                     
  B9                    1.07                     
  B10                   1.07                     
  B11                   1.07                     
  B12                   1.07                     
  B13                   1.07                     
  B14                   1.07                     
  B15                   1.07                     
  B16                   1.07                     
  A1                  121.21955                  
  A2                  119.22975                  
  A3                  119.33648                  
  A4                  121.35648                  
  A5                  121.45508                  
  A6                  119.15179                  
  A7                  119.37416                  
  A8                  121.44776                  
  A9                  121.21955                  
  A10                 119.22975                  
  A11                 119.33648                  
  A12                 121.35648                  
  A13                 121.45508                  
  A14                 119.15179                  
  A15                 119.37416                  
  A16                 121.44776                  
  D1                    1.29192                  
  D2                  179.6941                   
  D3                 -179.96189                  
  D4                 -179.56141                  
  D5                    1.09891                  
  D6                  179.66711                  
  D7                  179.8534                   
  D8                 -179.79774                  
  D9                   -1.29192                  
  D10                -179.6941                   
  D11                 179.96189                  
  D12                 179.56141                  
  D13                  -1.09891                  
  D14                -179.66711                  
  D15                -179.8534                   
  D16                 179.79774                  
 
 AtmSel:  NamVal=Blocks NAtLst=    58 NIVal=     0 NNoVal=     0:
 AtmSel:  IAtLst=      1      2      3      4      5      6      7      8      9     10
 AtmSel:  IAtLst=     11     12     13     14     15     16     17     18     19     20
 AtmSel:  IAtLst=     21     22     23     24     25     26     27     28     29     30
 AtmSel:  IAtLst=     31     32     33     34     35     36     37     38     39     40
 AtmSel:  IAtLst=     41     42     43     44     45     46     47     48     49     50
 AtmSel:  IAtLst=     51     52     53     54     55     56     57     58
 Add virtual bond connecting atoms Bq42       and N22        Dist= 6.11D+00.
 NAtoms=     58 NQM=       58 NQMF=       0 NMMI=      0 NMMIF=      0
                NMic=       0 NMicF=      0.
                    Isotopes and Nuclear Properties:
 (Nuclear quadrupole moments (NQMom) in fm**2, nuclear magnetic moments (NMagM)
  in nuclear magnetons)

  Atom         1           2           3           4           5           6           7           8           9          10
 IAtWgt=          64          14          14          14          14          12          12          12          12          12
 AtmWgt=  63.9291454  14.0030740  14.0030740  14.0030740  14.0030740  12.0000000  12.0000000  12.0000000  12.0000000  12.0000000
 NucSpn=           0           2           2           2           2           0           0           0           0           0
 AtZEff=   0.0000000   0.0000000   0.0000000   0.0000000   0.0000000   0.0000000   0.0000000   0.0000000   0.0000000   0.0000000
 NQMom=    0.0000000   2.0440000   2.0440000   2.0440000   2.0440000   0.0000000   0.0000000   0.0000000   0.0000000   0.0000000
 NMagM=    0.0000000   0.4037610   0.4037610   0.4037610   0.4037610   0.0000000   0.0000000   0.0000000   0.0000000   0.0000000
 AtZNuc=  30.0000000   7.0000000   7.0000000   7.0000000   7.0000000   6.0000000   6.0000000   6.0000000   6.0000000   6.0000000

  Atom        11          12          13          14          15          16          17          18          19          20
 IAtWgt=          12          12          12          12          12          12          12          12          12          12
 AtmWgt=  12.0000000  12.0000000  12.0000000  12.0000000  12.0000000  12.0000000  12.0000000  12.0000000  12.0000000  12.0000000
 NucSpn=           0           0           0           0           0           0           0           0           0           0
 AtZEff=   0.0000000   0.0000000   0.0000000   0.0000000   0.0000000   0.0000000   0.0000000   0.0000000   0.0000000   0.0000000
 NQMom=    0.0000000   0.0000000   0.0000000   0.0000000   0.0000000   0.0000000   0.0000000   0.0000000   0.0000000   0.0000000
 NMagM=    0.0000000   0.0000000   0.0000000   0.0000000   0.0000000   0.0000000   0.0000000   0.0000000   0.0000000   0.0000000
 AtZNuc=   6.0000000   6.0000000   6.0000000   6.0000000   6.0000000   6.0000000   6.0000000   6.0000000   6.0000000   6.0000000

  Atom        21          22          23          24          25          26          27          28          29          30
 IAtWgt=          12          14          14          14          14          12          12          12          12          12
 AtmWgt=  12.0000000  14.0030740  14.0030740  14.0030740  14.0030740  12.0000000  12.0000000  12.0000000  12.0000000  12.0000000
 NucSpn=           0           2           2           2           2           0           0           0           0           0
 AtZEff=   0.0000000   0.0000000   0.0000000   0.0000000   0.0000000   0.0000000   0.0000000   0.0000000   0.0000000   0.0000000
 NQMom=    0.0000000   2.0440000   2.0440000   2.0440000   2.0440000   0.0000000   0.0000000   0.0000000   0.0000000   0.0000000
 NMagM=    0.0000000   0.4037610   0.4037610   0.4037610   0.4037610   0.0000000   0.0000000   0.0000000   0.0000000   0.0000000
 AtZNuc=   6.0000000   7.0000000   7.0000000   7.0000000   7.0000000   6.0000000   6.0000000   6.0000000   6.0000000   6.0000000

  Atom        31          32          33          34          35          36          37          38          39          40
 IAtWgt=          12          12          12          12          12          12          12          12          12          12
 AtmWgt=  12.0000000  12.0000000  12.0000000  12.0000000  12.0000000  12.0000000  12.0000000  12.0000000  12.0000000  12.0000000
 NucSpn=           0           0           0           0           0           0           0           0           0           0
 AtZEff=   0.0000000   0.0000000   0.0000000   0.0000000   0.0000000   0.0000000   0.0000000   0.0000000   0.0000000   0.0000000
 NQMom=    0.0000000   0.0000000   0.0000000   0.0000000   0.0000000   0.0000000   0.0000000   0.0000000   0.0000000   0.0000000
 NMagM=    0.0000000   0.0000000   0.0000000   0.0000000   0.0000000   0.0000000   0.0000000   0.0000000   0.0000000   0.0000000
 AtZNuc=   6.0000000   6.0000000   6.0000000   6.0000000   6.0000000   6.0000000   6.0000000   6.0000000   6.0000000   6.0000000

  Atom        41          42          43          44          45          46          47          48          49          50
 IAtWgt=          12           0           1           1           1           1           1           1           1           1
 AtmWgt=  12.0000000   0.0000000   1.0078250   1.0078250   1.0078250   1.0078250   1.0078250   1.0078250   1.0078250   1.0078250
 NucSpn=           0           0           1           1           1           1           1           1           1           1
 AtZEff=   0.0000000   0.0000000   0.0000000   0.0000000   0.0000000   0.0000000   0.0000000   0.0000000   0.0000000   0.0000000
 NQMom=    0.0000000   0.0000000   0.0000000   0.0000000   0.0000000   0.0000000   0.0000000   0.0000000   0.0000000   0.0000000
 NMagM=    0.0000000   0.0000000   2.7928460   2.7928460   2.7928460   2.7928460   2.7928460   2.7928460   2.7928460   2.7928460
 AtZNuc=   6.0000000   0.0000000   1.0000000   1.0000000   1.0000000   1.0000000   1.0000000   1.0000000   1.0000000   1.0000000

  Atom        51          52          53          54          55          56          57          58
 IAtWgt=           1           1           1           1           1           1           1           1
 AtmWgt=   1.0078250   1.0078250   1.0078250   1.0078250   1.0078250   1.0078250   1.0078250   1.0078250
 NucSpn=           1           1           1           1           1           1           1           1
 AtZEff=   0.0000000   0.0000000   0.0000000   0.0000000   0.0000000   0.0000000   0.0000000   0.0000000
 NQMom=    0.0000000   0.0000000   0.0000000   0.0000000   0.0000000   0.0000000   0.0000000   0.0000000
 NMagM=    2.7928460   2.7928460   2.7928460   2.7928460   2.7928460   2.7928460   2.7928460   2.7928460
 AtZNuc=   1.0000000   1.0000000   1.0000000   1.0000000   1.0000000   1.0000000   1.0000000   1.0000000
 Leave Link  101 at Wed Jun 11 01:31:31 2025, MaxMem=  1073741824 cpu:         0.6
 (Enter /opt/g09/l103.exe)

 GradGradGradGradGradGradGradGradGradGradGradGradGradGradGradGradGradGrad
 Berny optimization.
 Initialization pass.
                           ----------------------------
                           !    Initial Parameters    !
                           ! (Angstroms and Degrees)  !
 --------------------------                            --------------------------
 ! Name  Definition              Value          Derivative Info.                !
 --------------------------------------------------------------------------------
 ! R1    R(1,3)                  1.9802         estimate D2E/DX2                !
 ! R2    R(1,5)                  1.9784         estimate D2E/DX2                !
 ! R3    R(1,23)                 1.9802         estimate D2E/DX2                !
 ! R4    R(1,25)                 1.9784         estimate D2E/DX2                !
 ! R5    R(2,6)                  1.3337         estimate D2E/DX2                !
 ! R6    R(2,41)                 1.3318         estimate D2E/DX2                !
 ! R7    R(3,6)                  1.3657         estimate D2E/DX2                !
 ! R8    R(3,13)                 1.3716         estimate D2E/DX2                !
 ! R9    R(4,13)                 1.3275         estimate D2E/DX2                !
 ! R10   R(4,14)                 1.3307         estimate D2E/DX2                !
 ! R11   R(5,14)                 1.3738         estimate D2E/DX2                !
 ! R12   R(5,21)                 1.3639         estimate D2E/DX2                !
 ! R13   R(6,7)                  1.4502         estimate D2E/DX2                !
 ! R14   R(7,8)                  1.3929         estimate D2E/DX2                !
 ! R15   R(7,12)                 1.3984         estimate D2E/DX2                !
 ! R16   R(8,9)                  1.3882         estimate D2E/DX2                !
 ! R17   R(8,47)                 1.07           estimate D2E/DX2                !
 ! R18   R(9,10)                 1.3978         estimate D2E/DX2                !
 ! R19   R(9,48)                 1.07           estimate D2E/DX2                !
 ! R20   R(10,11)                1.3957         estimate D2E/DX2                !
 ! R21   R(10,49)                1.07           estimate D2E/DX2                !
 ! R22   R(11,12)                1.3935         estimate D2E/DX2                !
 ! R23   R(11,50)                1.07           estimate D2E/DX2                !
 ! R24   R(12,13)                1.4613         estimate D2E/DX2                !
 ! R25   R(14,15)                1.458          estimate D2E/DX2                !
 ! R26   R(15,16)                1.3955         estimate D2E/DX2                !
 ! R27   R(15,20)                1.4032         estimate D2E/DX2                !
 ! R28   R(16,17)                1.3888         estimate D2E/DX2                !
 ! R29   R(16,51)                1.07           estimate D2E/DX2                !
 ! R30   R(17,18)                1.395          estimate D2E/DX2                !
 ! R31   R(17,52)                1.07           estimate D2E/DX2                !
 ! R32   R(18,19)                1.391          estimate D2E/DX2                !
 ! R33   R(18,53)                1.07           estimate D2E/DX2                !
 ! R34   R(19,20)                1.392          estimate D2E/DX2                !
 ! R35   R(19,54)                1.07           estimate D2E/DX2                !
 ! R36   R(20,21)                1.4519         estimate D2E/DX2                !
 ! R37   R(21,22)                1.3318         estimate D2E/DX2                !
 ! R38   R(22,26)                1.3337         estimate D2E/DX2                !
 ! R39   R(22,42)                3.2313         estimate D2E/DX2                !
 ! R40   R(23,26)                1.3657         estimate D2E/DX2                !
 ! R41   R(23,33)                1.3716         estimate D2E/DX2                !
 ! R42   R(24,33)                1.3275         estimate D2E/DX2                !
 ! R43   R(24,34)                1.3307         estimate D2E/DX2                !
 ! R44   R(25,34)                1.3738         estimate D2E/DX2                !
 ! R45   R(25,41)                1.3639         estimate D2E/DX2                !
 ! R46   R(26,27)                1.4502         estimate D2E/DX2                !
 ! R47   R(27,28)                1.3929         estimate D2E/DX2                !
 ! R48   R(27,32)                1.3984         estimate D2E/DX2                !
 ! R49   R(28,29)                1.3882         estimate D2E/DX2                !
 ! R50   R(28,55)                1.07           estimate D2E/DX2                !
 ! R51   R(29,30)                1.3978         estimate D2E/DX2                !
 ! R52   R(29,56)                1.07           estimate D2E/DX2                !
 ! R53   R(30,31)                1.3957         estimate D2E/DX2                !
 ! R54   R(30,57)                1.07           estimate D2E/DX2                !
 ! R55   R(31,32)                1.3935         estimate D2E/DX2                !
 ! R56   R(31,58)                1.07           estimate D2E/DX2                !
 ! R57   R(32,33)                1.4613         estimate D2E/DX2                !
 ! R58   R(34,35)                1.458          estimate D2E/DX2                !
 ! R59   R(35,36)                1.3955         estimate D2E/DX2                !
 ! R60   R(35,40)                1.4032         estimate D2E/DX2                !
 ! R61   R(36,37)                1.3888         estimate D2E/DX2                !
 ! R62   R(36,43)                1.07           estimate D2E/DX2                !
 ! R63   R(37,38)                1.395          estimate D2E/DX2                !
 ! R64   R(37,44)                1.07           estimate D2E/DX2                !
 ! R65   R(38,39)                1.391          estimate D2E/DX2                !
 ! R66   R(38,45)                1.07           estimate D2E/DX2                !
 ! R67   R(39,40)                1.392          estimate D2E/DX2                !
 ! R68   R(39,46)                1.07           estimate D2E/DX2                !
 ! R69   R(40,41)                1.4519         estimate D2E/DX2                !
 ! A1    A(3,1,5)               88.9662         estimate D2E/DX2                !
 ! A2    A(3,1,25)              91.0338         estimate D2E/DX2                !
 ! A3    A(5,1,23)              91.0338         estimate D2E/DX2                !
 ! A4    A(23,1,25)             88.9662         estimate D2E/DX2                !
 ! A5    A(6,2,41)             123.9423         estimate D2E/DX2                !
 ! A6    A(1,3,6)              124.4922         estimate D2E/DX2                !
 ! A7    A(1,3,13)             126.2567         estimate D2E/DX2                !
 ! A8    A(6,3,13)             109.2176         estimate D2E/DX2                !
 ! A9    A(13,4,14)            123.0338         estimate D2E/DX2                !
 ! A10   A(1,5,14)             126.3956         estimate D2E/DX2                !
 ! A11   A(1,5,21)             124.581          estimate D2E/DX2                !
 ! A12   A(14,5,21)            109.0041         estimate D2E/DX2                !
 ! A13   A(2,6,3)              127.9053         estimate D2E/DX2                !
 ! A14   A(2,6,7)              123.084          estimate D2E/DX2                !
 ! A15   A(3,6,7)              108.9995         estimate D2E/DX2                !
 ! A16   A(6,7,8)              131.6779         estimate D2E/DX2                !
 ! A17   A(6,7,12)             106.8179         estimate D2E/DX2                !
 ! A18   A(8,7,12)             121.5036         estimate D2E/DX2                !
 ! A19   A(7,8,9)              117.0898         estimate D2E/DX2                !
 ! A20   A(7,8,47)             121.4551         estimate D2E/DX2                !
 ! A21   A(9,8,47)             121.4551         estimate D2E/DX2                !
 ! A22   A(8,9,10)             121.6964         estimate D2E/DX2                !
 ! A23   A(8,9,48)             119.1518         estimate D2E/DX2                !
 ! A24   A(10,9,48)            119.1518         estimate D2E/DX2                !
 ! A25   A(9,10,11)            121.2517         estimate D2E/DX2                !
 ! A26   A(9,10,49)            119.3742         estimate D2E/DX2                !
 ! A27   A(11,10,49)           119.3742         estimate D2E/DX2                !
 ! A28   A(10,11,12)           117.1045         estimate D2E/DX2                !
 ! A29   A(10,11,50)           121.4478         estimate D2E/DX2                !
 ! A30   A(12,11,50)           121.4478         estimate D2E/DX2                !
 ! A31   A(7,12,11)            121.3496         estimate D2E/DX2                !
 ! A32   A(7,12,13)            106.4348         estimate D2E/DX2                !
 ! A33   A(11,12,13)           132.205          estimate D2E/DX2                !
 ! A34   A(3,13,4)             127.763          estimate D2E/DX2                !
 ! A35   A(3,13,12)            108.5185         estimate D2E/DX2                !
 ! A36   A(4,13,12)            123.7177         estimate D2E/DX2                !
 ! A37   A(4,14,5)             127.4841         estimate D2E/DX2                !
 ! A38   A(4,14,15)            123.7054         estimate D2E/DX2                !
 ! A39   A(5,14,15)            108.8079         estimate D2E/DX2                !
 ! A40   A(14,15,16)           132.9469         estimate D2E/DX2                !
 ! A41   A(14,15,20)           106.3314         estimate D2E/DX2                !
 ! A42   A(16,15,20)           120.7135         estimate D2E/DX2                !
 ! A43   A(15,16,17)           117.5609         estimate D2E/DX2                !
 ! A44   A(15,16,51)           121.2195         estimate D2E/DX2                !
 ! A45   A(17,16,51)           121.2195         estimate D2E/DX2                !
 ! A46   A(16,17,18)           121.5405         estimate D2E/DX2                !
 ! A47   A(16,17,52)           119.2297         estimate D2E/DX2                !
 ! A48   A(18,17,52)           119.2297         estimate D2E/DX2                !
 ! A49   A(17,18,19)           121.327          estimate D2E/DX2                !
 ! A50   A(17,18,53)           119.3365         estimate D2E/DX2                !
 ! A51   A(19,18,53)           119.3365         estimate D2E/DX2                !
 ! A52   A(18,19,20)           117.287          estimate D2E/DX2                !
 ! A53   A(18,19,54)           121.3565         estimate D2E/DX2                !
 ! A54   A(20,19,54)           121.3565         estimate D2E/DX2                !
 ! A55   A(15,20,19)           121.5678         estimate D2E/DX2                !
 ! A56   A(15,20,21)           106.6361         estimate D2E/DX2                !
 ! A57   A(19,20,21)           131.7943         estimate D2E/DX2                !
 ! A58   A(5,21,20)            109.2117         estimate D2E/DX2                !
 ! A59   A(5,21,22)            127.9889         estimate D2E/DX2                !
 ! A60   A(20,21,22)           122.7948         estimate D2E/DX2                !
 ! A61   A(21,22,26)           123.9423         estimate D2E/DX2                !
 ! A62   A(21,22,42)            90.2268         estimate D2E/DX2                !
 ! A63   A(26,22,42)            95.8865         estimate D2E/DX2                !
 ! A64   A(1,23,26)            124.4922         estimate D2E/DX2                !
 ! A65   A(1,23,33)            126.2567         estimate D2E/DX2                !
 ! A66   A(26,23,33)           109.2176         estimate D2E/DX2                !
 ! A67   A(33,24,34)           123.0338         estimate D2E/DX2                !
 ! A68   A(1,25,34)            126.3956         estimate D2E/DX2                !
 ! A69   A(1,25,41)            124.581          estimate D2E/DX2                !
 ! A70   A(34,25,41)           109.0041         estimate D2E/DX2                !
 ! A71   A(22,26,23)           127.9053         estimate D2E/DX2                !
 ! A72   A(22,26,27)           123.084          estimate D2E/DX2                !
 ! A73   A(23,26,27)           108.9995         estimate D2E/DX2                !
 ! A74   A(26,27,28)           131.6779         estimate D2E/DX2                !
 ! A75   A(26,27,32)           106.8179         estimate D2E/DX2                !
 ! A76   A(28,27,32)           121.5036         estimate D2E/DX2                !
 ! A77   A(27,28,29)           117.0898         estimate D2E/DX2                !
 ! A78   A(27,28,55)           121.4551         estimate D2E/DX2                !
 ! A79   A(29,28,55)           121.4551         estimate D2E/DX2                !
 ! A80   A(28,29,30)           121.6964         estimate D2E/DX2                !
 ! A81   A(28,29,56)           119.1518         estimate D2E/DX2                !
 ! A82   A(30,29,56)           119.1518         estimate D2E/DX2                !
 ! A83   A(29,30,31)           121.2517         estimate D2E/DX2                !
 ! A84   A(29,30,57)           119.3742         estimate D2E/DX2                !
 ! A85   A(31,30,57)           119.3742         estimate D2E/DX2                !
 ! A86   A(30,31,32)           117.1045         estimate D2E/DX2                !
 ! A87   A(30,31,58)           121.4478         estimate D2E/DX2                !
 ! A88   A(32,31,58)           121.4478         estimate D2E/DX2                !
 ! A89   A(27,32,31)           121.3496         estimate D2E/DX2                !
 ! A90   A(27,32,33)           106.4348         estimate D2E/DX2                !
 ! A91   A(31,32,33)           132.205          estimate D2E/DX2                !
 ! A92   A(23,33,24)           127.763          estimate D2E/DX2                !
 ! A93   A(23,33,32)           108.5185         estimate D2E/DX2                !
 ! A94   A(24,33,32)           123.7177         estimate D2E/DX2                !
 ! A95   A(24,34,25)           127.4841         estimate D2E/DX2                !
 ! A96   A(24,34,35)           123.7054         estimate D2E/DX2                !
 ! A97   A(25,34,35)           108.8079         estimate D2E/DX2                !
 ! A98   A(34,35,36)           132.9469         estimate D2E/DX2                !
 ! A99   A(34,35,40)           106.3314         estimate D2E/DX2                !
 ! A100  A(36,35,40)           120.7135         estimate D2E/DX2                !
 ! A101  A(35,36,37)           117.5609         estimate D2E/DX2                !
 ! A102  A(35,36,43)           121.2195         estimate D2E/DX2                !
 ! A103  A(37,36,43)           121.2195         estimate D2E/DX2                !
 ! A104  A(36,37,38)           121.5405         estimate D2E/DX2                !
 ! A105  A(36,37,44)           119.2297         estimate D2E/DX2                !
 ! A106  A(38,37,44)           119.2297         estimate D2E/DX2                !
 ! A107  A(37,38,39)           121.327          estimate D2E/DX2                !
 ! A108  A(37,38,45)           119.3365         estimate D2E/DX2                !
 ! A109  A(39,38,45)           119.3365         estimate D2E/DX2                !
 ! A110  A(38,39,40)           117.287          estimate D2E/DX2                !
 ! A111  A(38,39,46)           121.3565         estimate D2E/DX2                !
 ! A112  A(40,39,46)           121.3565         estimate D2E/DX2                !
 ! A113  A(35,40,39)           121.5678         estimate D2E/DX2                !
 ! A114  A(35,40,41)           106.6361         estimate D2E/DX2                !
 ! A115  A(39,40,41)           131.7943         estimate D2E/DX2                !
 ! A116  A(2,41,25)            127.9889         estimate D2E/DX2                !
 ! A117  A(2,41,40)            122.7948         estimate D2E/DX2                !
 ! A118  A(25,41,40)           109.2117         estimate D2E/DX2                !
 ! A119  L(3,1,23,25,-1)       180.0            estimate D2E/DX2                !
 ! A120  L(5,1,25,23,-1)       180.0            estimate D2E/DX2                !
 ! A121  L(3,1,23,25,-2)       180.0            estimate D2E/DX2                !
 ! A122  L(5,1,25,23,-2)       180.0            estimate D2E/DX2                !
 ! D1    D(5,1,3,6)            179.3246         estimate D2E/DX2                !
 ! D2    D(5,1,3,13)             1.6623         estimate D2E/DX2                !
 ! D3    D(25,1,3,6)            -0.6754         estimate D2E/DX2                !
 ! D4    D(25,1,3,13)         -178.3377         estimate D2E/DX2                !
 ! D5    D(6,3,23,26)          180.0            estimate D2E/DX2                !
 ! D6    D(6,3,23,33)           -2.3377         estimate D2E/DX2                !
 ! D7    D(13,3,23,26)           2.3377         estimate D2E/DX2                !
 ! D8    D(13,3,23,33)         180.0            estimate D2E/DX2                !
 ! D9    D(3,1,5,14)             1.1832         estimate D2E/DX2                !
 ! D10   D(3,1,5,21)           179.4082         estimate D2E/DX2                !
 ! D11   D(23,1,5,14)         -178.8168         estimate D2E/DX2                !
 ! D12   D(23,1,5,21)           -0.5918         estimate D2E/DX2                !
 ! D13   D(14,5,25,34)         180.0            estimate D2E/DX2                !
 ! D14   D(14,5,25,41)           1.775          estimate D2E/DX2                !
 ! D15   D(21,5,25,34)          -1.775          estimate D2E/DX2                !
 ! D16   D(21,5,25,41)         180.0            estimate D2E/DX2                !
 ! D17   D(5,1,23,26)            0.6754         estimate D2E/DX2                !
 ! D18   D(5,1,23,33)          178.3377         estimate D2E/DX2                !
 ! D19   D(25,1,23,26)        -179.3246         estimate D2E/DX2                !
 ! D20   D(25,1,23,33)          -1.6623         estimate D2E/DX2                !
 ! D21   D(3,1,25,34)          178.8168         estimate D2E/DX2                !
 ! D22   D(3,1,25,41)            0.5918         estimate D2E/DX2                !
 ! D23   D(23,1,25,34)          -1.1832         estimate D2E/DX2                !
 ! D24   D(23,1,25,41)        -179.4082         estimate D2E/DX2                !
 ! D25   D(41,2,6,3)            -2.8779         estimate D2E/DX2                !
 ! D26   D(41,2,6,7)           175.7653         estimate D2E/DX2                !
 ! D27   D(6,2,41,25)            2.7749         estimate D2E/DX2                !
 ! D28   D(6,2,41,40)         -176.3569         estimate D2E/DX2                !
 ! D29   D(1,3,6,2)              1.8927         estimate D2E/DX2                !
 ! D30   D(1,3,6,7)           -176.905          estimate D2E/DX2                !
 ! D31   D(13,3,6,2)           179.8965         estimate D2E/DX2                !
 ! D32   D(13,3,6,7)             1.0988         estimate D2E/DX2                !
 ! D33   D(1,3,13,4)            -3.4104         estimate D2E/DX2                !
 ! D34   D(1,3,13,12)          176.9            estimate D2E/DX2                !
 ! D35   D(6,3,13,4)           178.6299         estimate D2E/DX2                !
 ! D36   D(6,3,13,12)           -1.0597         estimate D2E/DX2                !
 ! D37   D(14,4,13,3)            1.7441         estimate D2E/DX2                !
 ! D38   D(14,4,13,12)        -178.6098         estimate D2E/DX2                !
 ! D39   D(13,4,14,5)            1.693          estimate D2E/DX2                !
 ! D40   D(13,4,14,15)        -178.9685         estimate D2E/DX2                !
 ! D41   D(1,5,14,4)            -3.0344         estimate D2E/DX2                !
 ! D42   D(1,5,14,15)          177.5469         estimate D2E/DX2                !
 ! D43   D(21,5,14,4)          178.5112         estimate D2E/DX2                !
 ! D44   D(21,5,14,15)          -0.9075         estimate D2E/DX2                !
 ! D45   D(1,5,21,20)         -177.5225         estimate D2E/DX2                !
 ! D46   D(1,5,21,22)            1.7047         estimate D2E/DX2                !
 ! D47   D(14,5,21,20)           0.9665         estimate D2E/DX2                !
 ! D48   D(14,5,21,22)        -179.8064         estimate D2E/DX2                !
 ! D49   D(2,6,7,8)              0.1312         estimate D2E/DX2                !
 ! D50   D(2,6,7,12)          -179.5683         estimate D2E/DX2                !
 ! D51   D(3,6,7,8)            178.999          estimate D2E/DX2                !
 ! D52   D(3,6,7,12)            -0.7005         estimate D2E/DX2                !
 ! D53   D(6,7,8,9)           -178.9011         estimate D2E/DX2                !
 ! D54   D(6,7,8,47)             1.0989         estimate D2E/DX2                !
 ! D55   D(12,7,8,9)             0.7616         estimate D2E/DX2                !
 ! D56   D(12,7,8,47)         -179.2384         estimate D2E/DX2                !
 ! D57   D(6,7,12,11)          179.0075         estimate D2E/DX2                !
 ! D58   D(6,7,12,13)            0.0542         estimate D2E/DX2                !
 ! D59   D(8,7,12,11)           -0.7293         estimate D2E/DX2                !
 ! D60   D(8,7,12,13)         -179.6826         estimate D2E/DX2                !
 ! D61   D(7,8,9,10)            -0.3329         estimate D2E/DX2                !
 ! D62   D(7,8,9,48)           179.6671         estimate D2E/DX2                !
 ! D63   D(47,8,9,10)          179.6671         estimate D2E/DX2                !
 ! D64   D(47,8,9,48)           -0.3329         estimate D2E/DX2                !
 ! D65   D(8,9,10,11)           -0.1466         estimate D2E/DX2                !
 ! D66   D(8,9,10,49)          179.8534         estimate D2E/DX2                !
 ! D67   D(48,9,10,11)         179.8534         estimate D2E/DX2                !
 ! D68   D(48,9,10,49)          -0.1466         estimate D2E/DX2                !
 ! D69   D(9,10,11,12)           0.2023         estimate D2E/DX2                !
 ! D70   D(9,10,11,50)        -179.7977         estimate D2E/DX2                !
 ! D71   D(49,10,11,12)       -179.7977         estimate D2E/DX2                !
 ! D72   D(49,10,11,50)          0.2023         estimate D2E/DX2                !
 ! D73   D(10,11,12,7)           0.225          estimate D2E/DX2                !
 ! D74   D(10,11,12,13)        178.8696         estimate D2E/DX2                !
 ! D75   D(50,11,12,7)        -179.775          estimate D2E/DX2                !
 ! D76   D(50,11,12,13)         -1.1304         estimate D2E/DX2                !
 ! D77   D(7,12,13,3)            0.6044         estimate D2E/DX2                !
 ! D78   D(7,12,13,4)         -179.1006         estimate D2E/DX2                !
 ! D79   D(11,12,13,3)        -178.1889         estimate D2E/DX2                !
 ! D80   D(11,12,13,4)           2.1061         estimate D2E/DX2                !
 ! D81   D(4,14,15,16)           2.1203         estimate D2E/DX2                !
 ! D82   D(4,14,15,20)        -178.9551         estimate D2E/DX2                !
 ! D83   D(5,14,15,16)        -178.4341         estimate D2E/DX2                !
 ! D84   D(5,14,15,20)           0.4905         estimate D2E/DX2                !
 ! D85   D(14,15,16,17)        178.7081         estimate D2E/DX2                !
 ! D86   D(14,15,16,51)         -1.2919         estimate D2E/DX2                !
 ! D87   D(20,15,16,17)         -0.0915         estimate D2E/DX2                !
 ! D88   D(20,15,16,51)        179.9085         estimate D2E/DX2                !
 ! D89   D(14,15,20,19)       -179.484          estimate D2E/DX2                !
 ! D90   D(14,15,20,21)          0.088          estimate D2E/DX2                !
 ! D91   D(16,15,20,19)         -0.3996         estimate D2E/DX2                !
 ! D92   D(16,15,20,21)        179.1724         estimate D2E/DX2                !
 ! D93   D(15,16,17,18)          0.3059         estimate D2E/DX2                !
 ! D94   D(15,16,17,52)       -179.6941         estimate D2E/DX2                !
 ! D95   D(51,16,17,18)       -179.6941         estimate D2E/DX2                !
 ! D96   D(51,16,17,52)          0.3059         estimate D2E/DX2                !
 ! D97   D(16,17,18,19)         -0.0381         estimate D2E/DX2                !
 ! D98   D(16,17,18,53)        179.9619         estimate D2E/DX2                !
 ! D99   D(52,17,18,19)        179.9619         estimate D2E/DX2                !
 ! D100  D(52,17,18,53)         -0.0381         estimate D2E/DX2                !
 ! D101  D(17,18,19,20)         -0.4386         estimate D2E/DX2                !
 ! D102  D(17,18,19,54)        179.5614         estimate D2E/DX2                !
 ! D103  D(53,18,19,20)        179.5614         estimate D2E/DX2                !
 ! D104  D(53,18,19,54)         -0.4386         estimate D2E/DX2                !
 ! D105  D(18,19,20,15)          0.6538         estimate D2E/DX2                !
 ! D106  D(18,19,20,21)       -178.7961         estimate D2E/DX2                !
 ! D107  D(54,19,20,15)       -179.3462         estimate D2E/DX2                !
 ! D108  D(54,19,20,21)          1.2039         estimate D2E/DX2                !
 ! D109  D(15,20,21,5)          -0.6448         estimate D2E/DX2                !
 ! D110  D(15,20,21,22)       -179.9202         estimate D2E/DX2                !
 ! D111  D(19,20,21,5)         178.8661         estimate D2E/DX2                !
 ! D112  D(19,20,21,22)         -0.4093         estimate D2E/DX2                !
 ! D113  D(5,21,22,26)          -2.7749         estimate D2E/DX2                !
 ! D114  D(5,21,22,42)          94.4802         estimate D2E/DX2                !
 ! D115  D(20,21,22,26)        176.3569         estimate D2E/DX2                !
 ! D116  D(20,21,22,42)        -86.388          estimate D2E/DX2                !
 ! D117  D(21,22,26,23)          2.8779         estimate D2E/DX2                !
 ! D118  D(21,22,26,27)       -175.7653         estimate D2E/DX2                !
 ! D119  D(42,22,26,23)        -91.3767         estimate D2E/DX2                !
 ! D120  D(42,22,26,27)         89.9801         estimate D2E/DX2                !
 ! D121  D(1,23,26,22)          -1.8927         estimate D2E/DX2                !
 ! D122  D(1,23,26,27)         176.905          estimate D2E/DX2                !
 ! D123  D(33,23,26,22)       -179.8965         estimate D2E/DX2                !
 ! D124  D(33,23,26,27)         -1.0988         estimate D2E/DX2                !
 ! D125  D(1,23,33,24)           3.4104         estimate D2E/DX2                !
 ! D126  D(1,23,33,32)        -176.9            estimate D2E/DX2                !
 ! D127  D(26,23,33,24)       -178.6299         estimate D2E/DX2                !
 ! D128  D(26,23,33,32)          1.0597         estimate D2E/DX2                !
 ! D129  D(34,24,33,23)         -1.7441         estimate D2E/DX2                !
 ! D130  D(34,24,33,32)        178.6098         estimate D2E/DX2                !
 ! D131  D(33,24,34,25)         -1.693          estimate D2E/DX2                !
 ! D132  D(33,24,34,35)        178.9685         estimate D2E/DX2                !
 ! D133  D(1,25,34,24)           3.0344         estimate D2E/DX2                !
 ! D134  D(1,25,34,35)        -177.5469         estimate D2E/DX2                !
 ! D135  D(41,25,34,24)       -178.5112         estimate D2E/DX2                !
 ! D136  D(41,25,34,35)          0.9075         estimate D2E/DX2                !
 ! D137  D(1,25,41,2)           -1.7047         estimate D2E/DX2                !
 ! D138  D(1,25,41,40)         177.5225         estimate D2E/DX2                !
 ! D139  D(34,25,41,2)         179.8064         estimate D2E/DX2                !
 ! D140  D(34,25,41,40)         -0.9665         estimate D2E/DX2                !
 ! D141  D(22,26,27,28)         -0.1312         estimate D2E/DX2                !
 ! D142  D(22,26,27,32)        179.5683         estimate D2E/DX2                !
 ! D143  D(23,26,27,28)       -178.999          estimate D2E/DX2                !
 ! D144  D(23,26,27,32)          0.7005         estimate D2E/DX2                !
 ! D145  D(26,27,28,29)        178.9011         estimate D2E/DX2                !
 ! D146  D(26,27,28,55)         -1.0989         estimate D2E/DX2                !
 ! D147  D(32,27,28,29)         -0.7616         estimate D2E/DX2                !
 ! D148  D(32,27,28,55)        179.2384         estimate D2E/DX2                !
 ! D149  D(26,27,32,31)       -179.0075         estimate D2E/DX2                !
 ! D150  D(26,27,32,33)         -0.0542         estimate D2E/DX2                !
 ! D151  D(28,27,32,31)          0.7293         estimate D2E/DX2                !
 ! D152  D(28,27,32,33)        179.6826         estimate D2E/DX2                !
 ! D153  D(27,28,29,30)          0.3329         estimate D2E/DX2                !
 ! D154  D(27,28,29,56)       -179.6671         estimate D2E/DX2                !
 ! D155  D(55,28,29,30)       -179.6671         estimate D2E/DX2                !
 ! D156  D(55,28,29,56)          0.3329         estimate D2E/DX2                !
 ! D157  D(28,29,30,31)          0.1466         estimate D2E/DX2                !
 ! D158  D(28,29,30,57)       -179.8534         estimate D2E/DX2                !
 ! D159  D(56,29,30,31)       -179.8534         estimate D2E/DX2                !
 ! D160  D(56,29,30,57)          0.1466         estimate D2E/DX2                !
 ! D161  D(29,30,31,32)         -0.2023         estimate D2E/DX2                !
 ! D162  D(29,30,31,58)        179.7977         estimate D2E/DX2                !
 ! D163  D(57,30,31,32)        179.7977         estimate D2E/DX2                !
 ! D164  D(57,30,31,58)         -0.2023         estimate D2E/DX2                !
 ! D165  D(30,31,32,27)         -0.225          estimate D2E/DX2                !
 ! D166  D(30,31,32,33)       -178.8696         estimate D2E/DX2                !
 ! D167  D(58,31,32,27)        179.775          estimate D2E/DX2                !
 ! D168  D(58,31,32,33)          1.1304         estimate D2E/DX2                !
 ! D169  D(27,32,33,23)         -0.6044         estimate D2E/DX2                !
 ! D170  D(27,32,33,24)        179.1006         estimate D2E/DX2                !
 ! D171  D(31,32,33,23)        178.1889         estimate D2E/DX2                !
 ! D172  D(31,32,33,24)         -2.1061         estimate D2E/DX2                !
 ! D173  D(24,34,35,36)         -2.1203         estimate D2E/DX2                !
 ! D174  D(24,34,35,40)        178.9551         estimate D2E/DX2                !
 ! D175  D(25,34,35,36)        178.4341         estimate D2E/DX2                !
 ! D176  D(25,34,35,40)         -0.4905         estimate D2E/DX2                !
 ! D177  D(34,35,36,37)       -178.7081         estimate D2E/DX2                !
 ! D178  D(34,35,36,43)          1.2919         estimate D2E/DX2                !
 ! D179  D(40,35,36,37)          0.0915         estimate D2E/DX2                !
 ! D180  D(40,35,36,43)       -179.9085         estimate D2E/DX2                !
 ! D181  D(34,35,40,39)        179.484          estimate D2E/DX2                !
 ! D182  D(34,35,40,41)         -0.088          estimate D2E/DX2                !
 ! D183  D(36,35,40,39)          0.3996         estimate D2E/DX2                !
 ! D184  D(36,35,40,41)       -179.1724         estimate D2E/DX2                !
 ! D185  D(35,36,37,38)         -0.3059         estimate D2E/DX2                !
 ! D186  D(35,36,37,44)        179.6941         estimate D2E/DX2                !
 ! D187  D(43,36,37,38)        179.6941         estimate D2E/DX2                !
 ! D188  D(43,36,37,44)         -0.3059         estimate D2E/DX2                !
 ! D189  D(36,37,38,39)          0.0381         estimate D2E/DX2                !
 ! D190  D(36,37,38,45)       -179.9619         estimate D2E/DX2                !
 ! D191  D(44,37,38,39)       -179.9619         estimate D2E/DX2                !
 ! D192  D(44,37,38,45)          0.0381         estimate D2E/DX2                !
 ! D193  D(37,38,39,40)          0.4386         estimate D2E/DX2                !
 ! D194  D(37,38,39,46)       -179.5614         estimate D2E/DX2                !
 ! D195  D(45,38,39,40)       -179.5614         estimate D2E/DX2                !
 ! D196  D(45,38,39,46)          0.4386         estimate D2E/DX2                !
 ! D197  D(38,39,40,35)         -0.6538         estimate D2E/DX2                !
 ! D198  D(38,39,40,41)        178.7961         estimate D2E/DX2                !
 ! D199  D(46,39,40,35)        179.3462         estimate D2E/DX2                !
 ! D200  D(46,39,40,41)         -1.2039         estimate D2E/DX2                !
 ! D201  D(35,40,41,2)         179.9202         estimate D2E/DX2                !
 ! D202  D(35,40,41,25)          0.6448         estimate D2E/DX2                !
 ! D203  D(39,40,41,2)           0.4093         estimate D2E/DX2                !
 ! D204  D(39,40,41,25)       -178.8661         estimate D2E/DX2                !
 --------------------------------------------------------------------------------
 Trust Radius=3.00D-01 FncErr=1.00D-07 GrdErr=1.00D-06
 Number of steps in this run=    348 maximum allowed number of steps=    348.
 GradGradGradGradGradGradGradGradGradGradGradGradGradGradGradGradGradGrad

 Leave Link  103 at Wed Jun 11 01:31:31 2025, MaxMem=  1073741824 cpu:         0.0
 (Enter /opt/g09/l202.exe)
 Symmetry turned off:
 Cannot cope with ghost atoms or with translation vectors.
 Stoichiometry    C32H16N8Zn
 Framework group  C1[X(C32H16N8Zn)]
 NUMDOF-- NAT=    57 NAtoms=    58
 Deg. of freedom     0
 Full point group                 C1      NOp   1
                          Input orientation:                          
 ---------------------------------------------------------------------
 Center     Atomic      Atomic             Coordinates (Angstroms)
 Number     Number       Type             X           Y           Z
 ---------------------------------------------------------------------
      1         30           0        0.000000    0.000000    0.000000
      2          7           0        0.000000    0.000000    3.357139
      3          7           0        1.413724    0.000000    1.386530
      4          7           0        3.400830    0.000207   -0.000864
      5          7           0        1.410553   -0.005368   -1.387242
      6          6           0        1.177798    0.016323    2.731583
      7          6           0        2.445540    0.084748    3.432493
      8          6           0        2.751268    0.142851    4.790148
      9          6           0        4.094010    0.225067    5.132831
     10          6           0        5.099932    0.241969    4.162434
     11          6           0        4.795022    0.173535    2.802165
     12          6           0        3.447375    0.092316    2.456872
     13          6           0        2.767032    0.029084    1.165153
     14          6           0        2.766948   -0.030360   -1.170515
     15          6           0        3.447878   -0.084129   -2.458641
     16          6           0        4.793841   -0.153882   -2.820388
     17          6           0        5.092607   -0.218470   -4.175123
     18          6           0        4.089826   -0.207893   -5.144852
     19          6           0        2.745726   -0.132829   -4.794526
     20          6           0        2.442131   -0.078195   -3.437170
     21          6           0        1.175095   -0.019121   -2.730621
     22          7           0        0.000000   -0.000000   -3.357139
     23          7           0       -1.413724    0.000000   -1.386530
     24          7           0       -3.400830   -0.000207    0.000864
     25          7           0       -1.410553    0.005368    1.387242
     26          6           0       -1.177798   -0.016323   -2.731583
     27          6           0       -2.445540   -0.084748   -3.432493
     28          6           0       -2.751268   -0.142851   -4.790148
     29          6           0       -4.094010   -0.225067   -5.132831
     30          6           0       -5.099932   -0.241969   -4.162434
     31          6           0       -4.795022   -0.173535   -2.802165
     32          6           0       -3.447375   -0.092316   -2.456872
     33          6           0       -2.767032   -0.029084   -1.165153
     34          6           0       -2.766948    0.030360    1.170515
     35          6           0       -3.447878    0.084129    2.458641
     36          6           0       -4.793841    0.153882    2.820388
     37          6           0       -5.092607    0.218470    4.175123
     38          6           0       -4.089826    0.207893    5.144852
     39          6           0       -2.745726    0.132829    4.794526
     40          6           0       -2.442131    0.078195    3.437170
     41          6           0       -1.175095    0.019121    2.730621
     42          0           0        0.184539    3.214232   -3.632359
     43          1           0       -5.567353    0.157472    2.081087
     44          1           0       -6.115863    0.277731    4.482264
     45          1           0       -4.360011    0.258540    6.178938
     46          1           0       -1.976522    0.117701    5.538163
     47          1           0        1.984650    0.124899    5.536388
     48          1           0        4.365937    0.276830    6.166405
     49          1           0        6.123131    0.308637    4.468244
     50          1           0        5.562675    0.183022    2.056833
     51          1           0        5.567353   -0.157472   -2.081087
     52          1           0        6.115863   -0.277731   -4.482264
     53          1           0        4.360011   -0.258540   -6.178938
     54          1           0        1.976522   -0.117701   -5.538163
     55          1           0       -1.984650   -0.124899   -5.536388
     56          1           0       -4.365937   -0.276830   -6.166405
     57          1           0       -6.123131   -0.308637   -4.468244
     58          1           0       -5.562675   -0.183022   -2.056833
 ---------------------------------------------------------------------
 Rotational constants (GHZ):      0.0900388      0.0891227      0.0448025
 Leave Link  202 at Wed Jun 11 01:31:31 2025, MaxMem=  1073741824 cpu:         0.0
 (Enter /opt/g09/l301.exe)
 Standard basis: 6-31G(d,p) (6D, 7F)
 Warning:  center  42 has no basis functions!
 Ernie: Thresh=  0.10000D-02 Tol=  0.10000D-05 Strict=F.
   716 basis functions,  1336 primitive gaussians,   719 cartesian basis functions
   147 alpha electrons      147 beta electrons
       nuclear repulsion energy      5059.5014960457 Hartrees.
 IExCor=  408 DFT=T Ex+Corr=B3PW91 ExCW=0 ScaHFX=  0.200000
 ScaDFX=  0.800000  0.720000  1.000000  0.810000 ScalE2=  1.000000  1.000000
 IRadAn=      0 IRanWt=     -1 IRanGd=            0 ICorTp=0 IEmpDi=  4
 NAtoms=   58 NActive=   58 NUniq=   58 SFac= 1.00D+00 NAtFMM=   60 NAOKFM=F Big=F
 Integral buffers will be    131072 words long.
 Raffenetti 2 integral format.
 Two-electron integral symmetry is turned off.
 Leave Link  301 at Wed Jun 11 01:31:31 2025, MaxMem=  1073741824 cpu:         0.1
 (Enter /opt/g09/l302.exe)
 NPDir=0 NMtPBC=     1 NCelOv=     1 NCel=       1 NClECP=     1 NCelD=      1
         NCelK=      1 NCelE2=     1 NClLst=     1 CellRange=     0.0.
 One-electron integrals computed using PRISM.
 NBasis=   716 RedAO= T EigKep=  2.48D-04  NBF=   716
 NBsUse=   716 1.00D-06 EigRej= -1.00D+00 NBFU=   716
 Precomputing XC quadrature grid using
 IXCGrd= 4 IRadAn=           0 IRanWt=          -1 IRanGd=           0 AccXCQ= 0.00D+00.
 Generated NRdTot=       0 NPtTot=           0 NUsed=           0 NTot=          32
 NSgBfM=   676   676   676   676   676 MxSgAt=    58 MxSgA2=    57.
 Leave Link  302 at Wed Jun 11 01:31:32 2025, MaxMem=  1073741824 cpu:         2.6
 (Enter /opt/g09/l303.exe)
 DipDrv:  MaxL=1.
 Leave Link  303 at Wed Jun 11 01:31:32 2025, MaxMem=  1073741824 cpu:         0.2
 (Enter /opt/g09/l401.exe)
 ExpMin= 4.93D-02 ExpMax= 8.24D+04 ExpMxC= 1.24D+04 IAcc=2 IRadAn=         4 AccDes= 0.00D+00
 Harris functional with IExCor=  408 and IRadAn=       4 diagonalized for initial guess.
 HarFok:  IExCor=  408 AccDes= 0.00D+00 IRadAn=         4 IDoV= 1 UseB2=F ITyADJ=14
 ICtDFT=  3500011 ScaDFX=  1.000000  1.000000  1.000000  1.000000
 FoFCou: FMM=F IPFlag=           0 FMFlag=      100000 FMFlg1=           0
         NFxFlg=           0 DoJE=T BraDBF=F KetDBF=T FulRan=T
         wScrn=  0.000000 ICntrl=     500 IOpCl=  0 I1Cent=   200000004 NGrid=           0
         NMat0=    1 NMatS0=      1 NMatT0=    0 NMatD0=    1 NMtDS0=    0 NMtDT0=    0
 Symmetry not used in FoFCou.
 Harris En= -3446.61074498695    
 JPrj=0 DoOrth=F DoCkMO=F.
 Leave Link  401 at Wed Jun 11 01:31:41 2025, MaxMem=  1073741824 cpu:        18.2
 (Enter /opt/g09/l502.exe)
 Closed shell SCF:
 Using DIIS extrapolation, IDIIS=  1040.
 Two-electron integral symmetry not used.
 IVT=     1578177 IEndB=     1578177 NGot=  1073741824 MDV=  1072697968
 LenX=  1072697968 LenY=  1072180288
 Requested convergence on RMS density matrix=1.00D-08 within 128 cycles.
 Requested convergence on MAX density matrix=1.00D-06.
 Requested convergence on             energy=1.00D-06.
 No special actions if energy rises.
 Fock matrices will be formed incrementally for  20 cycles.

 Cycle   1  Pass 1  IDiag  1:
 FoFJK:  IHMeth= 1 ICntrl=       0 DoSepK=F KAlg= 0 I1Cent=   0 FoldK=F
 IRaf= 520000000 NMat=   1 IRICut=       1 DoRegI=T DoRafI=F ISym2E= 0.
 FoFCou: FMM=F IPFlag=           0 FMFlag=      100000 FMFlg1=           0
         NFxFlg=           0 DoJE=F BraDBF=F KetDBF=F FulRan=T
         wScrn=  0.000000 ICntrl=       0 IOpCl=  0 I1Cent=           0 NGrid=           0
         NMat0=    1 NMatS0=      1 NMatT0=    0 NMatD0=    1 NMtDS0=    0 NMtDT0=    0
 Symmetry not used in FoFCou.
 E= -3445.04294320152    
 DIIS: error= 5.55D-02 at cycle   1 NSaved=   1.
 NSaved= 1 IEnMin= 1 EnMin= -3445.04294320152     IErMin= 1 ErrMin= 5.55D-02
 ErrMax= 5.55D-02  0.00D+00 EMaxC= 1.00D-01 BMatC= 8.52D-01 BMatP= 8.52D-01
 IDIUse=3 WtCom= 4.45D-01 WtEn= 5.55D-01
 Coeff-Com:  0.100D+01
 Coeff-En:   0.100D+01
 Coeff:      0.100D+01
 Gap=     0.094 Goal=   None    Shift=    0.000
 GapD=    0.094 DampG=0.500 DampE=0.250 DampFc=0.1250 IDamp=-1.
 Damping current iteration by 1.25D-01
 RMSDP=3.56D-03 MaxDP=1.15D-01              OVMax= 2.35D-01

 Cycle   2  Pass 1  IDiag  1:
 RMSU=  4.20D-04    CP:  9.90D-01
 E= -3445.19008467506     Delta-E=       -0.147141473542 Rises=F Damp=T
 DIIS: error= 4.76D-02 at cycle   2 NSaved=   2.
 NSaved= 2 IEnMin= 2 EnMin= -3445.19008467506     IErMin= 2 ErrMin= 4.76D-02
 ErrMax= 4.76D-02  0.00D+00 EMaxC= 1.00D-01 BMatC= 4.75D-01 BMatP= 8.52D-01
 IDIUse=3 WtCom= 5.24D-01 WtEn= 4.76D-01
 Coeff-Com: -0.252D+01 0.352D+01
 Coeff-En:   0.000D+00 0.100D+01
 Coeff:     -0.132D+01 0.232D+01
 Gap=     0.098 Goal=   None    Shift=    0.000
 RMSDP=2.24D-03 MaxDP=9.72D-02 DE=-1.47D-01 OVMax= 1.48D-01

 Cycle   3  Pass 1  IDiag  1:
 RMSU=  1.34D-03    CP:  9.30D-01  3.00D+00
 E= -3445.63324610775     Delta-E=       -0.443161432690 Rises=F Damp=F
 DIIS: error= 2.32D-02 at cycle   3 NSaved=   3.
 NSaved= 3 IEnMin= 3 EnMin= -3445.63324610775     IErMin= 3 ErrMin= 2.32D-02
 ErrMax= 2.32D-02  0.00D+00 EMaxC= 1.00D-01 BMatC= 1.15D-01 BMatP= 4.75D-01
 IDIUse=3 WtCom= 7.68D-01 WtEn= 2.32D-01
 Coeff-Com:  0.754D+00-0.619D+00 0.865D+00
 Coeff-En:   0.741D-03 0.000D+00 0.999D+00
 Coeff:      0.579D+00-0.475D+00 0.896D+00
 Gap=     0.076 Goal=   None    Shift=    0.000
 RMSDP=8.47D-04 MaxDP=4.16D-02 DE=-4.43D-01 OVMax= 4.86D-02

 Cycle   4  Pass 1  IDiag  1:
 RMSU=  6.26D-04    CP:  9.45D-01  3.00D+00  6.04D-01
 E= -3445.68779613032     Delta-E=       -0.054550022567 Rises=F Damp=F
 DIIS: error= 1.28D-02 at cycle   4 NSaved=   4.
 NSaved= 4 IEnMin= 4 EnMin= -3445.68779613032     IErMin= 4 ErrMin= 1.28D-02
 ErrMax= 1.28D-02  0.00D+00 EMaxC= 1.00D-01 BMatC= 4.06D-02 BMatP= 1.15D-01
 IDIUse=3 WtCom= 8.72D-01 WtEn= 1.28D-01
 Coeff-Com:  0.588D+00-0.595D+00 0.591D+00 0.416D+00
 Coeff-En:   0.000D+00 0.000D+00 0.242D+00 0.758D+00
 Coeff:      0.513D+00-0.519D+00 0.546D+00 0.460D+00
 Gap=     0.081 Goal=   None    Shift=    0.000
 RMSDP=4.09D-04 MaxDP=2.58D-02 DE=-5.46D-02 OVMax= 5.75D-02

 Cycle   5  Pass 1  IDiag  1:
 RMSU=  2.24D-04    CP:  9.40D-01  3.00D+00  7.43D-01  5.54D-01
 E= -3445.71796668726     Delta-E=       -0.030170556947 Rises=F Damp=F
 DIIS: error= 2.71D-03 at cycle   5 NSaved=   5.
 NSaved= 5 IEnMin= 5 EnMin= -3445.71796668726     IErMin= 5 ErrMin= 2.71D-03
 ErrMax= 2.71D-03  0.00D+00 EMaxC= 1.00D-01 BMatC= 3.52D-03 BMatP= 4.06D-02
 IDIUse=3 WtCom= 9.73D-01 WtEn= 2.71D-02
 Coeff-Com:  0.132D+00-0.144D+00 0.176D+00 0.278D+00 0.558D+00
 Coeff-En:   0.000D+00 0.000D+00 0.000D+00 0.577D-01 0.942D+00
 Coeff:      0.128D+00-0.140D+00 0.172D+00 0.272D+00 0.568D+00
 Gap=     0.080 Goal=   None    Shift=    0.000
 RMSDP=9.74D-05 MaxDP=5.82D-03 DE=-3.02D-02 OVMax= 1.33D-02

 Cycle   6  Pass 1  IDiag  1:
 RMSU=  4.69D-05    CP:  9.40D-01  3.00D+00  7.35D-01  5.88D-01  6.35D-01
 E= -3445.72098373368     Delta-E=       -0.003017046412 Rises=F Damp=F
 DIIS: error= 6.30D-04 at cycle   6 NSaved=   6.
 NSaved= 6 IEnMin= 6 EnMin= -3445.72098373368     IErMin= 6 ErrMin= 6.30D-04
 ErrMax= 6.30D-04  0.00D+00 EMaxC= 1.00D-01 BMatC= 1.80D-04 BMatP= 3.52D-03
 IDIUse=3 WtCom= 9.94D-01 WtEn= 6.30D-03
 Coeff-Com:  0.385D-01-0.434D-01 0.693D-01 0.135D+00 0.329D+00 0.472D+00
 Coeff-En:   0.000D+00 0.000D+00 0.000D+00 0.000D+00 0.000D+00 0.100D+01
 Coeff:      0.383D-01-0.431D-01 0.689D-01 0.134D+00 0.326D+00 0.475D+00
 Gap=     0.080 Goal=   None    Shift=    0.000
 RMSDP=2.58D-05 MaxDP=2.06D-03 DE=-3.02D-03 OVMax= 3.37D-03

 Cycle   7  Pass 1  IDiag  1:
 RMSU=  1.41D-05    CP:  9.40D-01  3.00D+00  7.35D-01  5.96D-01  6.59D-01
                    CP:  5.66D-01
 E= -3445.72112982830     Delta-E=       -0.000146094624 Rises=F Damp=F
 DIIS: error= 1.88D-04 at cycle   7 NSaved=   7.
 NSaved= 7 IEnMin= 7 EnMin= -3445.72112982830     IErMin= 7 ErrMin= 1.88D-04
 ErrMax= 1.88D-04  0.00D+00 EMaxC= 1.00D-01 BMatC= 1.87D-05 BMatP= 1.80D-04
 IDIUse=3 WtCom= 9.98D-01 WtEn= 1.88D-03
 Coeff-Com:  0.111D-02-0.152D-02 0.183D-01 0.475D-01 0.132D+00 0.287D+00
 Coeff-Com:  0.516D+00
 Coeff-En:   0.000D+00 0.000D+00 0.000D+00 0.000D+00 0.000D+00 0.511D-01
 Coeff-En:   0.949D+00
 Coeff:      0.111D-02-0.152D-02 0.182D-01 0.474D-01 0.132D+00 0.286D+00
 Coeff:      0.517D+00
 Gap=     0.080 Goal=   None    Shift=    0.000
 RMSDP=7.53D-06 MaxDP=4.74D-04 DE=-1.46D-04 OVMax= 8.43D-04

 Cycle   8  Pass 1  IDiag  1:
 RMSU=  3.16D-06    CP:  9.40D-01  3.00D+00  7.36D-01  5.97D-01  6.58D-01
                    CP:  5.90D-01  5.39D-01
 E= -3445.72114518554     Delta-E=       -0.000015357238 Rises=F Damp=F
 DIIS: error= 3.97D-05 at cycle   8 NSaved=   8.
 NSaved= 8 IEnMin= 8 EnMin= -3445.72114518554     IErMin= 8 ErrMin= 3.97D-05
 ErrMax= 3.97D-05  0.00D+00 EMaxC= 1.00D-01 BMatC= 7.00D-07 BMatP= 1.87D-05
 IDIUse=1 WtCom= 1.00D+00 WtEn= 0.00D+00
 Coeff-Com: -0.137D-02 0.141D-02 0.597D-02 0.178D-01 0.517D-01 0.122D+00
 Coeff-Com:  0.268D+00 0.535D+00
 Coeff:     -0.137D-02 0.141D-02 0.597D-02 0.178D-01 0.517D-01 0.122D+00
 Coeff:      0.268D+00 0.535D+00
 Gap=     0.080 Goal=   None    Shift=    0.000
 RMSDP=1.91D-06 MaxDP=1.19D-04 DE=-1.54D-05 OVMax= 3.17D-04

 Cycle   9  Pass 1  IDiag  1:
 RMSU=  1.41D-06    CP:  9.40D-01  3.00D+00  7.36D-01  5.97D-01  6.57D-01
                    CP:  5.86D-01  5.72D-01  6.40D-01
 E= -3445.72114564218     Delta-E=       -0.000000456637 Rises=F Damp=F
 DIIS: error= 2.62D-05 at cycle   9 NSaved=   9.
 NSaved= 9 IEnMin= 9 EnMin= -3445.72114564218     IErMin= 9 ErrMin= 2.62D-05
 ErrMax= 2.62D-05  0.00D+00 EMaxC= 1.00D-01 BMatC= 2.14D-07 BMatP= 7.00D-07
 IDIUse=1 WtCom= 1.00D+00 WtEn= 0.00D+00
 Coeff-Com: -0.114D-02 0.124D-02 0.598D-03 0.315D-02 0.104D-01 0.287D-01
 Coeff-Com:  0.893D-01 0.369D+00 0.499D+00
 Coeff:     -0.114D-02 0.124D-02 0.598D-03 0.315D-02 0.104D-01 0.287D-01
 Coeff:      0.893D-01 0.369D+00 0.499D+00
 Gap=     0.080 Goal=   None    Shift=    0.000
 RMSDP=9.50D-07 MaxDP=7.09D-05 DE=-4.57D-07 OVMax= 1.61D-04

 Cycle  10  Pass 1  IDiag  1:
 RMSU=  5.08D-07    CP:  9.40D-01  3.00D+00  7.36D-01  5.97D-01  6.57D-01
                    CP:  5.86D-01  5.75D-01  7.75D-01  5.22D-01
 E= -3445.72114583583     Delta-E=       -0.000000193655 Rises=F Damp=F
 DIIS: error= 9.74D-06 at cycle  10 NSaved=  10.
 NSaved=10 IEnMin=10 EnMin= -3445.72114583583     IErMin=10 ErrMin= 9.74D-06
 ErrMax= 9.74D-06  0.00D+00 EMaxC= 1.00D-01 BMatC= 3.07D-08 BMatP= 2.14D-07
 IDIUse=1 WtCom= 1.00D+00 WtEn= 0.00D+00
 Coeff-Com: -0.578D-03 0.638D-03-0.195D-03 0.318D-03 0.177D-02 0.704D-02
 Coeff-Com:  0.339D-01 0.188D+00 0.333D+00 0.437D+00
 Coeff:     -0.578D-03 0.638D-03-0.195D-03 0.318D-03 0.177D-02 0.704D-02
 Coeff:      0.339D-01 0.188D+00 0.333D+00 0.437D+00
 Gap=     0.080 Goal=   None    Shift=    0.000
 RMSDP=3.21D-07 MaxDP=1.72D-05 DE=-1.94D-07 OVMax= 5.41D-05

 Cycle  11  Pass 1  IDiag  1:
 RMSU=  1.55D-07    CP:  9.40D-01  3.00D+00  7.36D-01  5.97D-01  6.57D-01
                    CP:  5.86D-01  5.76D-01  7.72D-01  6.38D-01  5.67D-01
 E= -3445.72114586721     Delta-E=       -0.000000031374 Rises=F Damp=F
 DIIS: error= 2.11D-06 at cycle  11 NSaved=  11.
 NSaved=11 IEnMin=11 EnMin= -3445.72114586721     IErMin=11 ErrMin= 2.11D-06
 ErrMax= 2.11D-06  0.00D+00 EMaxC= 1.00D-01 BMatC= 1.59D-09 BMatP= 3.07D-08
 IDIUse=1 WtCom= 1.00D+00 WtEn= 0.00D+00
 Coeff-Com: -0.849D-04 0.919D-04-0.190D-03-0.319D-03-0.666D-03-0.369D-03
 Coeff-Com:  0.601D-02 0.425D-01 0.969D-01 0.224D+00 0.632D+00
 Coeff:     -0.849D-04 0.919D-04-0.190D-03-0.319D-03-0.666D-03-0.369D-03
 Coeff:      0.601D-02 0.425D-01 0.969D-01 0.224D+00 0.632D+00
 Gap=     0.080 Goal=   None    Shift=    0.000
 RMSDP=8.22D-08 MaxDP=4.52D-06 DE=-3.14D-08 OVMax= 1.01D-05

 Cycle  12  Pass 1  IDiag  1:
 RMSU=  4.86D-08    CP:  9.40D-01  3.00D+00  7.36D-01  5.97D-01  6.57D-01
                    CP:  5.86D-01  5.76D-01  7.70D-01  6.28D-01  6.17D-01
                    CP:  6.68D-01
 E= -3445.72114586831     Delta-E=       -0.000000001106 Rises=F Damp=F
 DIIS: error= 6.78D-07 at cycle  12 NSaved=  12.
 NSaved=12 IEnMin=12 EnMin= -3445.72114586831     IErMin=12 ErrMin= 6.78D-07
 ErrMax= 6.78D-07  0.00D+00 EMaxC= 1.00D-01 BMatC= 2.77D-10 BMatP= 1.59D-09
 IDIUse=1 WtCom= 1.00D+00 WtEn= 0.00D+00
 Coeff-Com:  0.245D-04-0.295D-04-0.845D-04-0.207D-03-0.536D-03-0.817D-03
 Coeff-Com:  0.788D-03 0.832D-02 0.283D-01 0.101D+00 0.400D+00 0.463D+00
 Coeff:      0.245D-04-0.295D-04-0.845D-04-0.207D-03-0.536D-03-0.817D-03
 Coeff:      0.788D-03 0.832D-02 0.283D-01 0.101D+00 0.400D+00 0.463D+00
 Gap=     0.080 Goal=   None    Shift=    0.000
 RMSDP=2.93D-08 MaxDP=1.84D-06 DE=-1.11D-09 OVMax= 3.40D-06

 Cycle  13  Pass 1  IDiag  1:
 RMSU=  1.60D-08    CP:  9.40D-01  3.00D+00  7.36D-01  5.97D-01  6.57D-01
                    CP:  5.86D-01  5.77D-01  7.71D-01  6.29D-01  6.17D-01
                    CP:  7.27D-01  6.14D-01
 E= -3445.72114586865     Delta-E=       -0.000000000342 Rises=F Damp=F
 DIIS: error= 6.27D-08 at cycle  13 NSaved=  13.
 NSaved=13 IEnMin=13 EnMin= -3445.72114586865     IErMin=13 ErrMin= 6.27D-08
 ErrMax= 6.27D-08  0.00D+00 EMaxC= 1.00D-01 BMatC= 2.34D-12 BMatP= 2.77D-10
 IDIUse=1 WtCom= 1.00D+00 WtEn= 0.00D+00
 Coeff-Com:  0.114D-04-0.130D-04-0.703D-05-0.275D-04-0.864D-04-0.195D-03
 Coeff-Com: -0.269D-03-0.152D-02-0.160D-02 0.431D-02 0.395D-01 0.102D+00
 Coeff-Com:  0.858D+00
 Coeff:      0.114D-04-0.130D-04-0.703D-05-0.275D-04-0.864D-04-0.195D-03
 Coeff:     -0.269D-03-0.152D-02-0.160D-02 0.431D-02 0.395D-01 0.102D+00
 Coeff:      0.858D+00
 Gap=     0.080 Goal=   None    Shift=    0.000
 RMSDP=4.19D-09 MaxDP=1.15D-07 DE=-3.42D-10 OVMax= 6.61D-07

 SCF Done:  E(RB3PW91) =  -3445.72114587     A.U. after   13 cycles
            NFock= 13  Conv=0.42D-08     -V/T= 2.0052
 KE= 3.428063948598D+03 PE=-1.824712422423D+04 EE= 6.313837633714D+03
 Leave Link  502 at Wed Jun 11 01:42:03 2025, MaxMem=  1073741824 cpu:      1242.6
 (Enter /opt/g09/l601.exe)
 Copying SCF densities to generalized density rwf, IOpCl= 0 IROHF=0.

 **********************************************************************

            Population analysis using the SCF density.

 **********************************************************************

 Alpha  occ. eigenvalues -- -347.21980 -42.21233 -37.19721 -37.19085 -37.19081
 Alpha  occ. eigenvalues --  -14.34541 -14.34541 -14.34508 -14.34508 -14.33434
 Alpha  occ. eigenvalues --  -14.33434 -14.33339 -14.33339 -10.25588 -10.25588
 Alpha  occ. eigenvalues --  -10.25531 -10.25530 -10.25417 -10.25417 -10.25401
 Alpha  occ. eigenvalues --  -10.25401 -10.18899 -10.18899 -10.18855 -10.18855
 Alpha  occ. eigenvalues --  -10.18798 -10.18798 -10.18770 -10.18770 -10.18747
 Alpha  occ. eigenvalues --  -10.18747 -10.18719 -10.18719 -10.18693 -10.18693
 Alpha  occ. eigenvalues --  -10.18662 -10.18662 -10.18603 -10.18603 -10.18532
 Alpha  occ. eigenvalues --  -10.18532 -10.18483 -10.18483 -10.18477 -10.18477
 Alpha  occ. eigenvalues --   -4.80475  -3.20131  -3.19048  -3.19026  -1.01777
 Alpha  occ. eigenvalues --   -1.00367  -1.00285  -0.97572  -0.95156  -0.91224
 Alpha  occ. eigenvalues --   -0.90921  -0.87920  -0.86389  -0.86351  -0.86322
 Alpha  occ. eigenvalues --   -0.86281  -0.78102  -0.77080  -0.76915  -0.76862
 Alpha  occ. eigenvalues --   -0.76472  -0.76435  -0.76414  -0.76076  -0.72645
 Alpha  occ. eigenvalues --   -0.69969  -0.69936  -0.64614  -0.64423  -0.63777
 Alpha  occ. eigenvalues --   -0.63746  -0.63006  -0.62624  -0.60124  -0.60073
 Alpha  occ. eigenvalues --   -0.59876  -0.59100  -0.56329  -0.55595  -0.55487
 Alpha  occ. eigenvalues --   -0.54046  -0.53857  -0.53816  -0.50575  -0.50492
 Alpha  occ. eigenvalues --   -0.49571  -0.49470  -0.48638  -0.48606  -0.46973
 Alpha  occ. eigenvalues --   -0.46899  -0.46834  -0.46760  -0.46735  -0.46643
 Alpha  occ. eigenvalues --   -0.45549  -0.45341  -0.44530  -0.44487  -0.44479
 Alpha  occ. eigenvalues --   -0.44442  -0.44134  -0.43932  -0.43919  -0.43208
 Alpha  occ. eigenvalues --   -0.42967  -0.42930  -0.42411  -0.41724  -0.39939
 Alpha  occ. eigenvalues --   -0.38737  -0.37177  -0.36948  -0.36900  -0.36879
 Alpha  occ. eigenvalues --   -0.36831  -0.36816  -0.36099  -0.36081  -0.35844
 Alpha  occ. eigenvalues --   -0.35819  -0.35262  -0.34462  -0.34407  -0.34303
 Alpha  occ. eigenvalues --   -0.32414  -0.32254  -0.30887  -0.28233  -0.28054
 Alpha  occ. eigenvalues --   -0.28041  -0.26548  -0.26307  -0.26131  -0.26061
 Alpha  occ. eigenvalues --   -0.25997  -0.25473  -0.25427  -0.25399  -0.25318
 Alpha  occ. eigenvalues --   -0.24523  -0.18588
 Alpha virt. eigenvalues --   -0.10566  -0.10473  -0.04267  -0.03466  -0.02927
 Alpha virt. eigenvalues --   -0.02381  -0.02365   0.02576   0.02758   0.02849
 Alpha virt. eigenvalues --    0.03453   0.04446   0.05035   0.05931   0.10389
 Alpha virt. eigenvalues --    0.10505   0.10619   0.11102   0.11168   0.11234
 Alpha virt. eigenvalues --    0.11331   0.11407   0.13362   0.14458   0.15090
 Alpha virt. eigenvalues --    0.15358   0.15375   0.16152   0.17625   0.17687
 Alpha virt. eigenvalues --    0.17818   0.17841   0.18288   0.18338   0.18370
 Alpha virt. eigenvalues --    0.18875   0.18982   0.19160   0.19458   0.20102
 Alpha virt. eigenvalues --    0.21583   0.21833   0.21911   0.22584   0.22667
 Alpha virt. eigenvalues --    0.24387   0.24595   0.24780   0.25251   0.25920
 Alpha virt. eigenvalues --    0.26044   0.26060   0.27003   0.27203   0.28302
 Alpha virt. eigenvalues --    0.28477   0.28492   0.29825   0.30027   0.30169
 Alpha virt. eigenvalues --    0.32316   0.32865   0.33445   0.33583   0.34285
 Alpha virt. eigenvalues --    0.34590   0.34708   0.35785   0.36680   0.37748
 Alpha virt. eigenvalues --    0.38797   0.39225   0.39250   0.39509   0.42390
 Alpha virt. eigenvalues --    0.42583   0.42868   0.42952   0.43397   0.43809
 Alpha virt. eigenvalues --    0.49537   0.49910   0.50709   0.51163   0.51193
 Alpha virt. eigenvalues --    0.51528   0.51970   0.52366   0.53769   0.53799
 Alpha virt. eigenvalues --    0.54104   0.54236   0.54372   0.54391   0.55214
 Alpha virt. eigenvalues --    0.55445   0.55759   0.55822   0.56191   0.56410
 Alpha virt. eigenvalues --    0.56959   0.57089   0.57496   0.57516   0.57811
 Alpha virt. eigenvalues --    0.57934   0.58323   0.58360   0.58415   0.58501
 Alpha virt. eigenvalues --    0.58529   0.58686   0.59036   0.59993   0.60668
 Alpha virt. eigenvalues --    0.60752   0.61026   0.61089   0.61137   0.61183
 Alpha virt. eigenvalues --    0.61188   0.61443   0.62011   0.62380   0.62467
 Alpha virt. eigenvalues --    0.62646   0.62814   0.62869   0.64089   0.64879
 Alpha virt. eigenvalues --    0.65362   0.65523   0.65566   0.65588   0.65699
 Alpha virt. eigenvalues --    0.65784   0.65951   0.66107   0.66326   0.67549
 Alpha virt. eigenvalues --    0.68804   0.69165   0.69208   0.69773   0.70758
 Alpha virt. eigenvalues --    0.74294   0.74635   0.74753   0.75369   0.75581
 Alpha virt. eigenvalues --    0.75913   0.77221   0.78969   0.79288   0.79457
 Alpha virt. eigenvalues --    0.79654   0.80066   0.80122   0.81773   0.82162
 Alpha virt. eigenvalues --    0.82482   0.82593   0.82635   0.83087   0.83341
 Alpha virt. eigenvalues --    0.83698   0.83962   0.84594   0.84709   0.85609
 Alpha virt. eigenvalues --    0.85832   0.86448   0.86519   0.86661   0.88206
 Alpha virt. eigenvalues --    0.88330   0.88359   0.88862   0.88907   0.89134
 Alpha virt. eigenvalues --    0.89451   0.90450   0.91208   0.91334   0.91549
 Alpha virt. eigenvalues --    0.92087   0.92918   0.93122   0.93371   0.93526
 Alpha virt. eigenvalues --    0.94532   0.94949   0.96347   0.96437   0.98931
 Alpha virt. eigenvalues --    0.98965   0.99717   0.99824   1.00139   1.00563
 Alpha virt. eigenvalues --    1.00842   1.01146   1.01252   1.03150   1.03196
 Alpha virt. eigenvalues --    1.03290   1.03589   1.05755   1.07621   1.07966
 Alpha virt. eigenvalues --    1.08131   1.11714   1.12100   1.12156   1.12558
 Alpha virt. eigenvalues --    1.12574   1.13270   1.14129   1.15314   1.15391
 Alpha virt. eigenvalues --    1.16741   1.18034   1.19219   1.19454   1.20871
 Alpha virt. eigenvalues --    1.21099   1.21359   1.21388   1.21804   1.23212
 Alpha virt. eigenvalues --    1.24410   1.24916   1.25109   1.25411   1.26583
 Alpha virt. eigenvalues --    1.26617   1.26848   1.26885   1.28320   1.28445
 Alpha virt. eigenvalues --    1.29401   1.29441   1.30081   1.30501   1.31255
 Alpha virt. eigenvalues --    1.31911   1.31918   1.32849   1.32959   1.34135
 Alpha virt. eigenvalues --    1.35243   1.35326   1.35391   1.35762   1.35847
 Alpha virt. eigenvalues --    1.36164   1.36260   1.37311   1.38834   1.39565
 Alpha virt. eigenvalues --    1.39587   1.39613   1.39651   1.39960   1.40023
 Alpha virt. eigenvalues --    1.40137   1.40854   1.41953   1.42647   1.42860
 Alpha virt. eigenvalues --    1.43046   1.43287   1.43346   1.46318   1.46524
 Alpha virt. eigenvalues --    1.46734   1.48172   1.49317   1.49360   1.49503
 Alpha virt. eigenvalues --    1.51887   1.55880   1.56218   1.56471   1.57935
 Alpha virt. eigenvalues --    1.58503   1.58691   1.58753   1.63517   1.66156
 Alpha virt. eigenvalues --    1.68521   1.70144   1.71047   1.73868   1.73905
 Alpha virt. eigenvalues --    1.74056   1.74096   1.74444   1.75404   1.75597
 Alpha virt. eigenvalues --    1.75913   1.77040   1.79226   1.80077   1.80274
 Alpha virt. eigenvalues --    1.81586   1.81800   1.81914   1.82141   1.82229
 Alpha virt. eigenvalues --    1.82560   1.83969   1.84489   1.84874   1.85018
 Alpha virt. eigenvalues --    1.85626   1.85722   1.85888   1.86106   1.86960
 Alpha virt. eigenvalues --    1.87093   1.88389   1.88480   1.88720   1.88845
 Alpha virt. eigenvalues --    1.89902   1.89981   1.90033   1.90974   1.93030
 Alpha virt. eigenvalues --    1.93711   1.94767   1.94968   1.95134   1.95782
 Alpha virt. eigenvalues --    1.97206   1.97407   1.97732   1.97756   1.97793
 Alpha virt. eigenvalues --    1.97855   1.97943   1.98003   1.98027   2.00095
 Alpha virt. eigenvalues --    2.01165   2.01430   2.02246   2.03120   2.03293
 Alpha virt. eigenvalues --    2.03443   2.03871   2.06243   2.06333   2.07374
 Alpha virt. eigenvalues --    2.08069   2.08946   2.09355   2.09415   2.10205
 Alpha virt. eigenvalues --    2.11704   2.11773   2.11899   2.12238   2.12596
 Alpha virt. eigenvalues --    2.16966   2.17301   2.19179   2.19390   2.19523
 Alpha virt. eigenvalues --    2.19779   2.20426   2.20785   2.21476   2.22008
 Alpha virt. eigenvalues --    2.23549   2.23803   2.23956   2.25428   2.25851
 Alpha virt. eigenvalues --    2.26457   2.26928   2.27913   2.28297   2.28432
 Alpha virt. eigenvalues --    2.28582   2.32481   2.33200   2.34740   2.34877
 Alpha virt. eigenvalues --    2.36242   2.36260   2.36328   2.37022   2.37049
 Alpha virt. eigenvalues --    2.37487   2.37529   2.37697   2.38148   2.38486
 Alpha virt. eigenvalues --    2.38701   2.38720   2.39573   2.39693   2.40131
 Alpha virt. eigenvalues --    2.40227   2.40812   2.40971   2.41147   2.41367
 Alpha virt. eigenvalues --    2.41616   2.43343   2.44531   2.44681   2.45063
 Alpha virt. eigenvalues --    2.45724   2.45788   2.46432   2.46778   2.46913
 Alpha virt. eigenvalues --    2.47528   2.47633   2.48685   2.48685   2.48995
 Alpha virt. eigenvalues --    2.51535   2.51538   2.51599   2.51810   2.53193
 Alpha virt. eigenvalues --    2.53894   2.54003   2.54535   2.54765   2.55581
 Alpha virt. eigenvalues --    2.57367   2.57578   2.58646   2.58721   2.59147
 Alpha virt. eigenvalues --    2.60666   2.60709   2.60834   2.61715   2.62366
 Alpha virt. eigenvalues --    2.63239   2.64367   2.64527   2.66270   2.66600
 Alpha virt. eigenvalues --    2.67075   2.67137   2.67283   2.70390   2.70474
 Alpha virt. eigenvalues --    2.71645   2.71819   2.71964   2.72935   2.74333
 Alpha virt. eigenvalues --    2.75014   2.75208   2.75365   2.75380   2.75637
[...]
     48          1           0        4.440293    0.238504    6.171666
     49          1           0        6.181826    0.176752    4.427940
     50          1           0        5.563062    0.087934    2.008516
     51          1           0        5.559481   -0.060214   -2.013974
     52          1           0        6.174357   -0.146916   -4.434560
     53          1           0        4.429978   -0.216622   -6.175130
     54          1           0        2.008819   -0.201968   -5.557126
     55          1           0       -2.017633   -0.209937   -5.553295
     56          1           0       -4.439878   -0.233992   -6.167062
     57          1           0       -6.181406   -0.171098   -4.423370
     58          1           0       -5.562631   -0.081979   -2.003959
 ---------------------------------------------------------------------
 Rotational constants (GHZ):      0.0893336      0.0893322      0.0446664
 Leave Link  202 at Wed Jun 11 02:47:40 2025, MaxMem=  1073741824 cpu:         0.0
 (Enter /opt/g09/l601.exe)
 Copying SCF densities to generalized density rwf, IOpCl= 0 IROHF=0.

 **********************************************************************

            Population analysis using the SCF density.

 **********************************************************************

 Alpha  occ. eigenvalues -- -347.22022 -42.21266 -37.19752 -37.19117 -37.19117
 Alpha  occ. eigenvalues --  -14.34542 -14.34542 -14.34542 -14.34542 -14.33346
 Alpha  occ. eigenvalues --  -14.33346 -14.33346 -14.33346 -10.25543 -10.25543
 Alpha  occ. eigenvalues --  -10.25543 -10.25543 -10.25542 -10.25542 -10.25542
 Alpha  occ. eigenvalues --  -10.25541 -10.18983 -10.18983 -10.18983 -10.18983
 Alpha  occ. eigenvalues --  -10.18975 -10.18975 -10.18975 -10.18975 -10.18917
 Alpha  occ. eigenvalues --  -10.18916 -10.18916 -10.18916 -10.18887 -10.18887
 Alpha  occ. eigenvalues --  -10.18886 -10.18886 -10.18867 -10.18867 -10.18867
 Alpha  occ. eigenvalues --  -10.18867 -10.18843 -10.18843 -10.18843 -10.18843
 Alpha  occ. eigenvalues --   -4.80505  -3.20160  -3.19068  -3.19067  -1.01819
 Alpha  occ. eigenvalues --   -1.00364  -1.00363  -0.97525  -0.95337  -0.91163
 Alpha  occ. eigenvalues --   -0.91162  -0.87973  -0.86290  -0.86219  -0.86219
 Alpha  occ. eigenvalues --   -0.86162  -0.78109  -0.76914  -0.76777  -0.76777
 Alpha  occ. eigenvalues --   -0.76330  -0.76329  -0.76318  -0.76007  -0.72684
 Alpha  occ. eigenvalues --   -0.70031  -0.70029  -0.64641  -0.64236  -0.63566
 Alpha  occ. eigenvalues --   -0.63565  -0.62976  -0.62530  -0.60063  -0.60062
 Alpha  occ. eigenvalues --   -0.59863  -0.59087  -0.56053  -0.55390  -0.55388
 Alpha  occ. eigenvalues --   -0.53837  -0.53818  -0.53816  -0.50578  -0.50476
 Alpha  occ. eigenvalues --   -0.49460  -0.49380  -0.48488  -0.48488  -0.46914
 Alpha  occ. eigenvalues --   -0.46893  -0.46892  -0.46761  -0.46760  -0.46478
 Alpha  occ. eigenvalues --   -0.45554  -0.45365  -0.44357  -0.44332  -0.44199
 Alpha  occ. eigenvalues --   -0.44198  -0.44056  -0.43958  -0.43958  -0.43105
 Alpha  occ. eigenvalues --   -0.42828  -0.42827  -0.42370  -0.41599  -0.39961
 Alpha  occ. eigenvalues --   -0.38881  -0.37252  -0.36967  -0.36967  -0.36856
 Alpha  occ. eigenvalues --   -0.36856  -0.36777  -0.36190  -0.35843  -0.35838
 Alpha  occ. eigenvalues --   -0.35571  -0.35238  -0.34273  -0.34272  -0.34248
 Alpha  occ. eigenvalues --   -0.32377  -0.32376  -0.30805  -0.28146  -0.28034
 Alpha  occ. eigenvalues --   -0.28031  -0.26521  -0.26207  -0.26197  -0.26086
 Alpha  occ. eigenvalues --   -0.26086  -0.25478  -0.25371  -0.25371  -0.25265
 Alpha  occ. eigenvalues --   -0.24608  -0.18666
 Alpha virt. eigenvalues --   -0.10561  -0.10561  -0.04333  -0.03464  -0.02887
 Alpha virt. eigenvalues --   -0.02350  -0.02349   0.02362   0.02635   0.02636
 Alpha virt. eigenvalues --    0.03424   0.04369   0.05024   0.05894   0.10162
 Alpha virt. eigenvalues --    0.10216   0.10218   0.10887   0.11013   0.11015
 Alpha virt. eigenvalues --    0.11204   0.11205   0.13450   0.14020   0.14792
 Alpha virt. eigenvalues --    0.14793   0.15179   0.15736   0.17313   0.17314
 Alpha virt. eigenvalues --    0.17400   0.17529   0.18240   0.18240   0.18263
 Alpha virt. eigenvalues --    0.18566   0.18823   0.18825   0.18870   0.19466
 Alpha virt. eigenvalues --    0.21566   0.21568   0.21605   0.22510   0.22751
 Alpha virt. eigenvalues --    0.24416   0.24528   0.24530   0.25061   0.25776
 Alpha virt. eigenvalues --    0.25787   0.25789   0.26752   0.26954   0.28335
 Alpha virt. eigenvalues --    0.28336   0.28414   0.29864   0.29866   0.30088
 Alpha virt. eigenvalues --    0.32312   0.32601   0.33525   0.33526   0.34347
 Alpha virt. eigenvalues --    0.34503   0.34506   0.35626   0.36576   0.37569
 Alpha virt. eigenvalues --    0.38941   0.38952   0.39097   0.39570   0.42442
 Alpha virt. eigenvalues --    0.42443   0.42575   0.42780   0.43272   0.43273
 Alpha virt. eigenvalues --    0.49624   0.49628   0.50575   0.51145   0.51145
 Alpha virt. eigenvalues --    0.51197   0.51948   0.52340   0.53830   0.53831
 Alpha virt. eigenvalues --    0.53836   0.53919   0.54351   0.54351   0.54836
 Alpha virt. eigenvalues --    0.55415   0.55675   0.55676   0.55893   0.56329
 Alpha virt. eigenvalues --    0.56813   0.56814   0.57401   0.57471   0.57558
 Alpha virt. eigenvalues --    0.57765   0.57996   0.58290   0.58290   0.58478
 Alpha virt. eigenvalues --    0.58478   0.58672   0.58990   0.60010   0.60423
 Alpha virt. eigenvalues --    0.60424   0.60835   0.61037   0.61045   0.61047
 Alpha virt. eigenvalues --    0.61048   0.61194   0.61974   0.62346   0.62348
 Alpha virt. eigenvalues --    0.62541   0.62792   0.62793   0.64018   0.65091
 Alpha virt. eigenvalues --    0.65099   0.65467   0.65467   0.65535   0.65649
 Alpha virt. eigenvalues --    0.65649   0.65907   0.65993   0.66212   0.67723
 Alpha virt. eigenvalues --    0.68715   0.69143   0.69143   0.69781   0.70602
 Alpha virt. eigenvalues --    0.74315   0.74590   0.74592   0.75348   0.75550
 Alpha virt. eigenvalues --    0.75553   0.77139   0.78657   0.79102   0.79106
 Alpha virt. eigenvalues --    0.79219   0.79226   0.79244   0.81121   0.81748
 Alpha virt. eigenvalues --    0.81853   0.81853   0.82231   0.83204   0.83208
 Alpha virt. eigenvalues --    0.83428   0.83729   0.83734   0.83749   0.85375
 Alpha virt. eigenvalues --    0.85806   0.86026   0.86503   0.86505   0.87814
 Alpha virt. eigenvalues --    0.87847   0.87847   0.88600   0.88816   0.89004
 Alpha virt. eigenvalues --    0.89471   0.90546   0.91154   0.91568   0.91579
 Alpha virt. eigenvalues --    0.91944   0.92862   0.92864   0.93181   0.93183
 Alpha virt. eigenvalues --    0.94185   0.94771   0.96009   0.96012   0.98495
 Alpha virt. eigenvalues --    0.98880   0.99416   0.99417   0.99704   1.00410
 Alpha virt. eigenvalues --    1.00705   1.01121   1.01124   1.03042   1.03153
 Alpha virt. eigenvalues --    1.03155   1.03443   1.05695   1.07665   1.07667
 Alpha virt. eigenvalues --    1.07855   1.11619   1.12007   1.12238   1.12241
 Alpha virt. eigenvalues --    1.12733   1.12963   1.14053   1.15196   1.15196
 Alpha virt. eigenvalues --    1.16604   1.17954   1.19286   1.20106   1.20125
 Alpha virt. eigenvalues --    1.21269   1.21269   1.21435   1.21879   1.23705
 Alpha virt. eigenvalues --    1.24468   1.24477   1.24572   1.25747   1.26559
 Alpha virt. eigenvalues --    1.26560   1.26763   1.27002   1.28339   1.28342
 Alpha virt. eigenvalues --    1.29404   1.29949   1.29954   1.30081   1.30943
 Alpha virt. eigenvalues --    1.31516   1.32084   1.32910   1.32913   1.34252
 Alpha virt. eigenvalues --    1.35127   1.35134   1.35276   1.35766   1.36228
 Alpha virt. eigenvalues --    1.36229   1.36362   1.36385   1.38823   1.39444
 Alpha virt. eigenvalues --    1.39469   1.39470   1.39491   1.40059   1.40192
 Alpha virt. eigenvalues --    1.40193   1.40902   1.41361   1.42428   1.42428
 Alpha virt. eigenvalues --    1.42623   1.42751   1.42783   1.46508   1.46511
 Alpha virt. eigenvalues --    1.47066   1.48329   1.48833   1.48836   1.49266
 Alpha virt. eigenvalues --    1.51521   1.55346   1.56280   1.56285   1.57872
 Alpha virt. eigenvalues --    1.58716   1.58718   1.59074   1.63768   1.66054
 Alpha virt. eigenvalues --    1.68281   1.70762   1.70779   1.73331   1.73449
 Alpha virt. eigenvalues --    1.73450   1.74251   1.74283   1.75382   1.75443
 Alpha virt. eigenvalues --    1.75445   1.76986   1.78920   1.79831   1.79834
 Alpha virt. eigenvalues --    1.80738   1.80986   1.81427   1.81427   1.81989
 Alpha virt. eigenvalues --    1.82164   1.83611   1.84087   1.84088   1.84119
 Alpha virt. eigenvalues --    1.85553   1.85554   1.85731   1.85734   1.86443
 Alpha virt. eigenvalues --    1.86989   1.87058   1.87372   1.87465   1.87468
 Alpha virt. eigenvalues --    1.88461   1.88712   1.88714   1.90750   1.92877
 Alpha virt. eigenvalues --    1.92893   1.94817   1.94886   1.94926   1.95445
 Alpha virt. eigenvalues --    1.97157   1.97161   1.97520   1.97751   1.97753
 Alpha virt. eigenvalues --    1.97753   1.97783   1.97876   1.97877   1.99440
 Alpha virt. eigenvalues --    2.00922   2.00923   2.01836   2.02857   2.02948
 Alpha virt. eigenvalues --    2.02949   2.03698   2.06342   2.06342   2.07556
 Alpha virt. eigenvalues --    2.08397   2.08404   2.08928   2.08968   2.10071
 Alpha virt. eigenvalues --    2.11049   2.11050   2.11363   2.11732   2.12216
 Alpha virt. eigenvalues --    2.16926   2.16928   2.18961   2.19190   2.19277
 Alpha virt. eigenvalues --    2.19279   2.20152   2.20153   2.21426   2.21458
 Alpha virt. eigenvalues --    2.23321   2.23326   2.23926   2.25333   2.25336
 Alpha virt. eigenvalues --    2.26169   2.26175   2.27603   2.28135   2.28138
 Alpha virt. eigenvalues --    2.28624   2.31936   2.32425   2.33779   2.33781
 Alpha virt. eigenvalues --    2.35523   2.35626   2.35989   2.36113   2.36166
 Alpha virt. eigenvalues --    2.36300   2.36301   2.37084   2.37369   2.37510
 Alpha virt. eigenvalues --    2.37765   2.37768   2.38957   2.38960   2.39348
 Alpha virt. eigenvalues --    2.39351   2.40277   2.40457   2.40457   2.40603
 Alpha virt. eigenvalues --    2.41297   2.42344   2.43493   2.43494   2.44111
 Alpha virt. eigenvalues --    2.45511   2.45910   2.45953   2.46029   2.46031
 Alpha virt. eigenvalues --    2.46160   2.47473   2.47499   2.48260   2.48262
 Alpha virt. eigenvalues --    2.50288   2.51581   2.51697   2.51699   2.52837
 Alpha virt. eigenvalues --    2.52838   2.53054   2.54487   2.54502   2.54809
 Alpha virt. eigenvalues --    2.56710   2.57080   2.57339   2.57340   2.57556
 Alpha virt. eigenvalues --    2.59990   2.60250   2.60252   2.61222   2.61917
 Alpha virt. eigenvalues --    2.62287   2.64000   2.64004   2.66110   2.66203
 Alpha virt. eigenvalues --    2.66872   2.66875   2.66915   2.70133   2.70140
 Alpha virt. eigenvalues --    2.70994   2.71241   2.72326   2.72333   2.73642
 Alpha virt. eigenvalues --    2.73825   2.73825   2.74073   2.74357   2.74575
 Alpha virt. eigenvalues --    2.74578   2.74992   2.75795   2.76928   2.76993
 Alpha virt. eigenvalues --    2.79627   2.79691   2.79706   2.84953   2.84955
 Alpha virt. eigenvalues --    2.85387   2.87775   2.88288   2.88293   2.89774
 Alpha virt. eigenvalues --    2.92175   2.92178   2.95877   2.95878   2.96189
 Alpha virt. eigenvalues --    2.97284   2.97286   2.99564   2.99685   3.01251
 Alpha virt. eigenvalues --    3.01254   3.01517   3.02316   3.12138   3.17438
 Alpha virt. eigenvalues --    3.17440   3.20656   3.20997   3.21004   3.21588
 Alpha virt. eigenvalues --    3.23469   3.23472   3.23587   3.23691   3.24710
 Alpha virt. eigenvalues --    3.24720   3.26363   3.27507   3.29181   3.30425
 Alpha virt. eigenvalues --    3.30426   3.31557   3.33640   3.34474   3.35513
 Alpha virt. eigenvalues --    3.35515   3.46100   3.47521   3.47522   3.48638
 Alpha virt. eigenvalues --    3.48800   3.49862   3.50745   3.50748   3.85293
 Alpha virt. eigenvalues --    3.85683   3.85684   3.86075   4.09235   4.09640
 Alpha virt. eigenvalues --    4.11609   4.11612   4.13160   4.13166   4.13167
 Alpha virt. eigenvalues --    4.13437   4.13878   4.14312   4.14361   4.14362
 Alpha virt. eigenvalues --    4.20345   4.21262   4.21264   4.23134   4.24400
 Alpha virt. eigenvalues --    4.26911   4.33937   4.33938   4.34243   4.34804
 Alpha virt. eigenvalues --    4.40497   4.40498   4.48591   4.50134   4.50723
 Alpha virt. eigenvalues --    4.50948   4.50957   4.54468   4.57053   4.57061
 Alpha virt. eigenvalues --    4.65977   4.67050   4.67062   4.69814   4.85620
 Alpha virt. eigenvalues --    4.88637   4.88638   4.92459  47.47640
          Condensed to atoms (all electrons):
 Mulliken charges:
               1
     1  Zn   1.018217
     2  N   -0.572642
     3  N   -0.751971
     4  N   -0.572627
     5  N   -0.751982
     6  C    0.512442
     7  C    0.019285
     8  C   -0.140585
     9  C   -0.128249
    10  C   -0.128221
    11  C   -0.140651
    12  C    0.019383
    13  C    0.512501
    14  C    0.512535
    15  C    0.019331
    16  C   -0.140626
    17  C   -0.128229
    18  C   -0.128242
    19  C   -0.140603
    20  C    0.019321
    21  C    0.512426
    22  N   -0.572640
    23  N   -0.751970
    24  N   -0.572627
    25  N   -0.751982
    26  C    0.512440
    27  C    0.019287
    28  C   -0.140586
    29  C   -0.128249
    30  C   -0.128221
    31  C   -0.140650
    32  C    0.019381
    33  C    0.512503
    34  C    0.512533
    35  C    0.019333
    36  C   -0.140626
    37  C   -0.128229
    38  C   -0.128242
    39  C   -0.140603
    40  C    0.019319
    41  C    0.512429
    42  Bq   0.000000
    43  H    0.144143
    44  H    0.127928
    45  H    0.127925
    46  H    0.144149
    47  H    0.144152
    48  H    0.127927
    49  H    0.127929
    50  H    0.144143
    51  H    0.144143
    52  H    0.127928
    53  H    0.127925
    54  H    0.144149
    55  H    0.144151
    56  H    0.127927
    57  H    0.127929
    58  H    0.144143
 Sum of Mulliken charges =  -0.00000
 Mulliken charges with hydrogens summed into heavy atoms:
               1
     1  Zn   1.018217
     2  N   -0.572642
     3  N   -0.751971
     4  N   -0.572627
     5  N   -0.751982
     6  C    0.512442
     7  C    0.019285
     8  C    0.003566
     9  C   -0.000322
    10  C   -0.000292
    11  C    0.003492
    12  C    0.019383
    13  C    0.512501
    14  C    0.512535
    15  C    0.019331
    16  C    0.003517
    17  C   -0.000301
    18  C   -0.000317
    19  C    0.003545
    20  C    0.019321
    21  C    0.512426
    22  N   -0.572640
    23  N   -0.751970
    24  N   -0.572627
    25  N   -0.751982
    26  C    0.512440
    27  C    0.019287
    28  C    0.003565
    29  C   -0.000322
    30  C   -0.000293
    31  C    0.003492
    32  C    0.019381
    33  C    0.512503
    34  C    0.512533
    35  C    0.019333
    36  C    0.003517
    37  C   -0.000301
    38  C   -0.000317
    39  C    0.003546
    40  C    0.019319
    41  C    0.512429
    42  Bq   0.000000
 Electronic spatial extent (au):  <R**2>=          21996.7937
 Charge=              0.0000 electrons
 Dipole moment (field-independent basis, Debye):
    X=             -0.0000    Y=              0.0031    Z=             -0.0001  Tot=              0.0031
 Quadrupole moment (field-independent basis, Debye-Ang):
   XX=           -201.7211   YY=           -241.2395   ZZ=           -201.7843
   XY=              0.0774   XZ=             -0.0014   YZ=              1.4318
 Traceless Quadrupole moment (field-independent basis, Debye-Ang):
   XX=             13.1939   YY=            -26.3245   ZZ=             13.1306
   XY=              0.0774   XZ=             -0.0014   YZ=              1.4318
 Octapole moment (field-independent basis, Debye-Ang**2):
  XXX=             -0.1303  YYY=             -1.7305  ZZZ=             -1.3886  XYY=             -0.0521
  XXY=             -0.4290  XXZ=             -0.4639  XZZ=             -0.0424  YZZ=             -0.4711
  YYZ=             -0.5464  XYZ=             -0.0103
 Hexadecapole moment (field-independent basis, Debye-Ang**3):
 XXXX=         -13331.2715 YYYY=           -261.7578 ZZZZ=         -13317.6306 XXXY=             -9.7708
 XXXZ=              1.3825 YYYX=            -15.8222 YYYZ=           -300.7355 ZZZX=             -0.7197
 ZZZY=           -187.8320 XXYY=          -2776.5068 XXZZ=          -4057.0164 YYZZ=          -2770.4747
 XXYZ=            -49.1174 YYXZ=              0.3804 ZZXY=             -2.5878
 N-N= 5.052805561066D+03 E-N=-1.823326286642D+04  KE= 3.427541270236D+03
 No NMR shielding tensors so no spin-rotation constants.
 Leave Link  601 at Wed Jun 11 02:47:41 2025, MaxMem=  1073741824 cpu:         0.8
 (Enter /opt/g09/l9999.exe)
 1\1\ WCSS.PL-BEM-SPIRIT2\FOpt\RB3PW91\6-31G(d,p)\C32H16N8Zn1\SERGEY\11
 -Jun-2025\0\\#p opt=readopt b3pw91/6-31g(d,p)\\Title Card Required\\0,
 1\Zn,0.0002141382,0.0027446823,0.0022792235\N,0.0030958219,0.129319981
 5,3.3732792768\N,1.4031594651,0.0580624236,1.4022723374\N,3.3727713038
 ,0.0090091322,-0.0008255974\N,1.4007304766,-0.0484234764,-1.4002911168
 \C,1.174900916,0.1082820054,2.7511143737\C,2.4561465503,0.1367311352,3
 .4455542929\C,2.7913783979,0.1866194473,4.7969889552\C,4.143302229,0.2
 000928551,5.1274090629\C,5.1363019182,0.164889467,4.1331731318\C,4.803
 0726731,0.1153297722,2.7827625142\C,3.4501103733,0.1015002582,2.450313
 1967\C,2.7524826298,0.0520919357,1.171327618\C,2.7504356767,-0.0367362
 901,-1.1717960157\C,3.4458943321,-0.0831716851,-2.4520684075\C,4.79830
 36025,-0.0910802189,-2.7869241337\C,5.1293290895,-0.1395219539,-4.1378
 907689\C,4.1347129679,-0.179254021,-5.1303481783\C,2.7833362458,-0.171
 5220959,-4.7975308909\C,2.4502836044,-0.1229084755,-3.4455068031\C,1.1
 702008973,-0.0998242793,-2.7487049135\N,-0.0026638575,-0.125958365,-3.
 3686419236\N,-1.4027288973,-0.053740173,-1.3976717997\N,-3.3723426027,
 -0.0039975076,0.005405214\N,-1.4003002377,0.0526504552,1.404894188\C,-
 1.1744707205,-0.1043714829,-2.7465016079\C,-2.4557200189,-0.1325415487
 ,-3.440946268\C,-2.7909579781,-0.1824825947,-4.7923774573\C,-4.1428837
 924,-0.1954709843,-5.1228094319\C,-5.1358796219,-0.1596099348,-4.12859
 37499\C,-4.8026449201,-0.109868327,-2.7781912016\C,-3.4496811907,-0.09
 66489868,-2.4457257972\C,-2.7520524893,-0.0473741776,-1.1667370052\C,-
 2.7500072253,0.0415093098,1.1763840672\C,-3.4454649526,0.0882938217,2.
 4566454343\C,-4.797875366,0.0969854022,2.791479773\C,-5.1288941959,0.1
 454594586,4.1424468463\C,-4.134271013,0.1845622578,5.1349228276\C,-2.7
 828941778,0.176166277,4.8021228599\C,-2.4498486343,0.1273963849,3.4501
 02722\C,-1.1697683818,0.1037889013,2.7533142678\Bq,0.1722910561,3.0751
 173962,-3.7630916044\H,-5.5590582349,0.0666017228,2.0185168892\H,-6.17
 39216886,0.1533785474,4.4391026563\H,-4.4295315419,0.2219860395,6.1797
 044575\H,-2.0083709934,0.2061304103,5.5617317348\H,2.0180509791,0.2135
 743896,5.5579208645\H,4.4402931748,0.2385044976,6.1716664859\H,6.18182
 64775,0.1767515696,4.4279403195\H,5.5630616368,0.0879341172,2.00851601
 5\H,5.5594805139,-0.0602135303,-2.0139743173\H,6.174356588,-0.14691642
 36,-4.4345599923\H,4.4299779829,-0.2166224193,-6.1751304507\H,2.008818
 5056,-0.2019675363,-5.5571264524\H,-2.0176333131,-0.2099367511,-5.5532
 946054\H,-4.4398782707,-0.2339915138,-6.1670617303\H,-6.1814058597,-0.
 1710982393,-4.4233695111\H,-5.5626305196,-0.0819789155,-2.0039589278\\
 Version=ES64L-G09RevE.01\HF=-3445.72597\RMSD=5.842e-09\RMSF=2.455e-05\
 Dipole=-0.0000055,0.0012273,-0.0000363\Quadrupole=9.809337,-19.5716296
 ,9.7622926,0.057555,-0.0010378,1.0644823\PG=C01 [X(C32H16N8Zn1)]\\@


 A warm smile is the universal language of kindness.
                             -- William Arthur Ward
 Job cpu time:       0 days  2 hours 32 minutes 14.7 seconds.
 File lengths (MBytes):  RWF=    304 Int=      0 D2E=      0 Chk=     36 Scr=      1
 Normal termination of Gaussian 09 at Wed Jun 11 02:47:41 2025.
