 Entering Gaussian System, Link 0=g09
 Input=ZnPcXRD6H.gjf
 Output=ZnPcXRD6H.log
 Initial command:
 /opt/g09/l1.exe "/opt/scr/Gau-59138.inp" -scrdir="/opt/scr/"
 Entering Link 1 = /opt/g09/l1.exe PID=     59139.
  
 Copyright (c) 1988,1990,1992,1993,1995,1998,2003,2009,2015,
            Gaussian, Inc.  All Rights Reserved.
  
 This is part of the Gaussian(R) 09 program.  It is based on
 the Gaussian(R) 03 system (copyright 2003, Gaussian, Inc.),
 the Gaussian(R) 98 system (copyright 1998, Gaussian, Inc.),
 the Gaussian(R) 94 system (copyright 1995, Gaussian, Inc.),
 the Gaussian 92(TM) system (copyright 1992, Gaussian, Inc.),
 the Gaussian 90(TM) system (copyright 1990, Gaussian, Inc.),
 the Gaussian 88(TM) system (copyright 1988, Gaussian, Inc.),
 the Gaussian 86(TM) system (copyright 1986, Carnegie Mellon
 University), and the Gaussian 82(TM) system (copyright 1983,
 Carnegie Mellon University). Gaussian is a federally registered
 trademark of Gaussian, Inc.
  
 This software contains proprietary and confidential information,
 including trade secrets, belonging to Gaussian, Inc.
  
 This software is provided under written license and may be
 used, copied, transmitted, or stored only in accord with that
 written license.
  
 The following legend is applicable only to US Government
 contracts under FAR:
  
                    RESTRICTED RIGHTS LEGEND
  
 Use, reproduction and disclosure by the US Government is
 subject to restrictions as set forth in subparagraphs (a)
 and (c) of the Commercial Computer Software - Restricted
 Rights clause in FAR 52.227-19.
  
 Gaussian, Inc.
 340 Quinnipiac St., Bldg. 40, Wallingford CT 06492
  
  
 ---------------------------------------------------------------
 Warning -- This program may not be used in any manner that
 competes with the business of Gaussian, Inc. or will provide
 assistance to any competitor of Gaussian, Inc.  The licensee
 of this program is prohibited from giving any competitor of
 Gaussian, Inc. access to this program.  By using this program,
 the user acknowledges that Gaussian, Inc. is engaged in the
 business of creating and licensing software in the field of
 computational chemistry and represents and warrants to the
 licensee that it is not a competitor of Gaussian, Inc. and that
 it will not use this program in any manner prohibited above.
 ---------------------------------------------------------------
  

 Cite this work as:
 Gaussian 09, Revision E.01,
 M. J. Frisch, G. W. Trucks, H. B. Schlegel, G. E. Scuseria, 
 M. A. Robb, J. R. Cheeseman, G. Scalmani, V. Barone, B. Mennucci, 
 G. A. Petersson, H. Nakatsuji, M. Caricato, X. Li, H. P. Hratchian, 
 A. F. Izmaylov, J. Bloino, G. Zheng, J. L. Sonnenberg, M. Hada, 
 M. Ehara, K. Toyota, R. Fukuda, J. Hasegawa, M. Ishida, T. Nakajima, 
 Y. Honda, O. Kitao, H. Nakai, T. Vreven, J. A. Montgomery, Jr., 
 J. E. Peralta, F. Ogliaro, M. Bearpark, J. J. Heyd, E. Brothers, 
 K. N. Kudin, V. N. Staroverov, T. Keith, R. Kobayashi, J. Normand, 
 K. Raghavachari, A. Rendell, J. C. Burant, S. S. Iyengar, J. Tomasi, 
 M. Cossi, N. Rega, J. M. Millam, M. Klene, J. E. Knox, J. B. Cross, 
 V. Bakken, C. Adamo, J. Jaramillo, R. Gomperts, R. E. Stratmann, 
 O. Yazyev, A. J. Austin, R. Cammi, C. Pomelli, J. W. Ochterski, 
 R. L. Martin, K. Morokuma, V. G. Zakrzewski, G. A. Voth, 
 P. Salvador, J. J. Dannenberg, S. Dapprich, A. D. Daniels, 
 O. Farkas, J. B. Foresman, J. V. Ortiz, J. Cioslowski, 
 and D. J. Fox, Gaussian, Inc., Wallingford CT, 2013.
 
 ******************************************
 Gaussian 09:  ES64L-G09RevE.01 30-Nov-2015
                17-Jun-2025 
 ******************************************
 %chk=ZnPcXRD6H.chk
 %nproc=2
 Will use up to    2 processors via shared memory.
 %mem=8GB
 -----------------------------
 #p opt=readopt b3pw91/6-31g**
 -----------------------------
 1/14=-1,18=20,19=15,26=3,29=6000,38=1/1,3;
 2/9=110,12=2,17=6,18=5,40=1/2;
 3/5=1,6=6,7=101,11=2,16=1,25=1,30=1,71=1,74=-6/1,2,3;
 4//1;
 5/5=2,38=5/2;
 6/7=2,8=2,9=2,10=2,28=1/1;
 7//1,2,3,16;
 1/14=-1,18=20,19=15,26=3/3(2);
 2/9=110/2;
 99//99;
 2/9=110/2;
 3/5=1,6=6,7=101,11=2,16=1,25=1,30=1,71=1,74=-6/1,2,3;
 4/5=5,16=3,69=1/1;
 5/5=2,38=5/2;
 7//1,2,3,16;
 1/14=-1,18=20,19=15,26=3/3(-5);
 2/9=110/2;
 6/7=2,8=2,9=2,10=2,19=2,28=1/1;
 99/9=1/99;
 Leave Link    1 at Tue Jun 17 02:52:25 2025, MaxMem=  1073741824 cpu:         0.0
 (Enter /opt/g09/l101.exe)
 -------------------
 Title Card Required
 -------------------
 Symbolic Z-matrix:
 Charge =  0 Multiplicity = 1
 Zn                    0.        0.        0. 
 N                    -2.03769  -2.51233   0.898 
 N                    -0.3279   -0.98387   1.68688 
 N                     1.23609   0.13008   3.16557 
 N                     1.35834   1.08822   0.94064 
 C                    -1.24158  -1.9886    1.83111 
 C                    -1.25473  -2.41962   3.21573 
 C                    -2.00877  -3.38553   3.87795 
 C                    -1.78699  -3.53648   5.23999 
 C                    -0.84442  -2.76084   5.92102 
 C                    -0.0812   -1.79979   5.2563 
 C                    -0.30388  -1.64641   3.88923 
 C                     0.27764  -0.74749   2.89466 
 C                     1.73731   0.96105   2.25503 
 C                     2.80459   1.91531   2.53095 
 C                     3.56253   2.19101   3.66975 
 C                     4.53902   3.17341   3.56942 
 C                     4.75578   3.86799   2.37919 
 C                     4.0017    3.60443   1.24039 
 C                     3.0289    2.61329   1.33445 
 C                     2.0979    2.07548   0.3587 
 N                     2.03769   2.51233  -0.898 
 N                     0.3279    0.98387  -1.68688 
 N                    -1.23609  -0.13008  -3.16557 
 N                    -1.35834  -1.08822  -0.94064 
 C                     1.24158   1.9886   -1.83111 
 C                     1.25473   2.41962  -3.21573 
 C                     2.00877   3.38553  -3.87795 
 C                     1.78699   3.53648  -5.23999 
 C                     0.84442   2.76084  -5.92102 
 C                     0.0812    1.79979  -5.2563 
 C                     0.30388   1.64641  -3.88923 
 C                    -0.27764   0.74749  -2.89466 
 C                    -1.73731  -0.96105  -2.25503 
 C                    -2.80459  -1.91531  -2.53095 
 C                    -3.56253  -2.19101  -3.66975 
 C                    -4.53902  -3.17341  -3.56942 
 C                    -4.75578  -3.86799  -2.37919 
 C                    -4.0017   -3.60443  -1.24039 
 C                    -3.0289   -2.61329  -1.33445 
 C                    -2.0979   -2.07548  -0.3587 
 Bq                    0.        4.8538    0. 
 H                    -0.64342   1.20655  -5.77388 
 H                     0.70538   2.90665  -6.97188 
 H                     2.35212   4.26534  -5.78247 
 H                     2.72758   3.98501  -3.35946 
 H                     4.16289   4.14171   0.32921 
 H                     5.51742   4.61859   2.34149 
 H                     5.13914   3.40293   4.42504 
 H                     3.39739   1.66478   4.58665 
 H                     0.64342  -1.20655   5.77388 
 H                    -0.70538  -2.90665   6.97188 
 H                    -2.35212  -4.26534   5.78247 
 H                    -2.72758  -3.98501   3.35946 
 H                    -4.16289  -4.14171  -0.32921 
 H                    -5.51742  -4.61859  -2.34149 
 H                    -5.13914  -3.40293  -4.42504 
 H                    -3.39739  -1.66478  -4.58665 
 
 AtmSel:  Line="notatoms=1-42"
 AtmSel:  NamVal=Blocks NAtLst=    16 NIVal=     0 NNoVal=     0:
 AtmSel:  IAtLst=     43     44     45     46     47     48     49     50     51     52
 AtmSel:  IAtLst=     53     54     55     56     57     58
 Add virtual bond connecting atoms Bq42       and N22        Dist= 6.11D+00.
 NAtoms=     58 NQM=       16 NQMF=      42 NMMI=      0 NMMIF=      0
                NMic=       0 NMicF=      0.
                    Isotopes and Nuclear Properties:
 (Nuclear quadrupole moments (NQMom) in fm**2, nuclear magnetic moments (NMagM)
  in nuclear magnetons)

  Atom         1           2           3           4           5           6           7           8           9          10
 IAtWgt=          64          14          14          14          14          12          12          12          12          12
 AtmWgt=  63.9291454  14.0030740  14.0030740  14.0030740  14.0030740  12.0000000  12.0000000  12.0000000  12.0000000  12.0000000
 NucSpn=           0           2           2           2           2           0           0           0           0           0
 AtZEff=   0.0000000   0.0000000   0.0000000   0.0000000   0.0000000   0.0000000   0.0000000   0.0000000   0.0000000   0.0000000
 NQMom=    0.0000000   2.0440000   2.0440000   2.0440000   2.0440000   0.0000000   0.0000000   0.0000000   0.0000000   0.0000000
 NMagM=    0.0000000   0.4037610   0.4037610   0.4037610   0.4037610   0.0000000   0.0000000   0.0000000   0.0000000   0.0000000
 AtZNuc=  30.0000000   7.0000000   7.0000000   7.0000000   7.0000000   6.0000000   6.0000000   6.0000000   6.0000000   6.0000000

  Atom        11          12          13          14          15          16          17          18          19          20
 IAtWgt=          12          12          12          12          12          12          12          12          12          12
 AtmWgt=  12.0000000  12.0000000  12.0000000  12.0000000  12.0000000  12.0000000  12.0000000  12.0000000  12.0000000  12.0000000
 NucSpn=           0           0           0           0           0           0           0           0           0           0
 AtZEff=   0.0000000   0.0000000   0.0000000   0.0000000   0.0000000   0.0000000   0.0000000   0.0000000   0.0000000   0.0000000
 NQMom=    0.0000000   0.0000000   0.0000000   0.0000000   0.0000000   0.0000000   0.0000000   0.0000000   0.0000000   0.0000000
 NMagM=    0.0000000   0.0000000   0.0000000   0.0000000   0.0000000   0.0000000   0.0000000   0.0000000   0.0000000   0.0000000
 AtZNuc=   6.0000000   6.0000000   6.0000000   6.0000000   6.0000000   6.0000000   6.0000000   6.0000000   6.0000000   6.0000000

  Atom        21          22          23          24          25          26          27          28          29          30
 IAtWgt=          12          14          14          14          14          12          12          12          12          12
 AtmWgt=  12.0000000  14.0030740  14.0030740  14.0030740  14.0030740  12.0000000  12.0000000  12.0000000  12.0000000  12.0000000
 NucSpn=           0           2           2           2           2           0           0           0           0           0
 AtZEff=   0.0000000   0.0000000   0.0000000   0.0000000   0.0000000   0.0000000   0.0000000   0.0000000   0.0000000   0.0000000
 NQMom=    0.0000000   2.0440000   2.0440000   2.0440000   2.0440000   0.0000000   0.0000000   0.0000000   0.0000000   0.0000000
 NMagM=    0.0000000   0.4037610   0.4037610   0.4037610   0.4037610   0.0000000   0.0000000   0.0000000   0.0000000   0.0000000
 AtZNuc=   6.0000000   7.0000000   7.0000000   7.0000000   7.0000000   6.0000000   6.0000000   6.0000000   6.0000000   6.0000000

  Atom        31          32          33          34          35          36          37          38          39          40
 IAtWgt=          12          12          12          12          12          12          12          12          12          12
 AtmWgt=  12.0000000  12.0000000  12.0000000  12.0000000  12.0000000  12.0000000  12.0000000  12.0000000  12.0000000  12.0000000
 NucSpn=           0           0           0           0           0           0           0           0           0           0
 AtZEff=   0.0000000   0.0000000   0.0000000   0.0000000   0.0000000   0.0000000   0.0000000   0.0000000   0.0000000   0.0000000
 NQMom=    0.0000000   0.0000000   0.0000000   0.0000000   0.0000000   0.0000000   0.0000000   0.0000000   0.0000000   0.0000000
 NMagM=    0.0000000   0.0000000   0.0000000   0.0000000   0.0000000   0.0000000   0.0000000   0.0000000   0.0000000   0.0000000
 AtZNuc=   6.0000000   6.0000000   6.0000000   6.0000000   6.0000000   6.0000000   6.0000000   6.0000000   6.0000000   6.0000000

  Atom        41          42          43          44          45          46          47          48          49          50
 IAtWgt=          12           0           1           1           1           1           1           1           1           1
 AtmWgt=  12.0000000   0.0000000   1.0078250   1.0078250   1.0078250   1.0078250   1.0078250   1.0078250   1.0078250   1.0078250
 NucSpn=           0           0           1           1           1           1           1           1           1           1
 AtZEff=   0.0000000   0.0000000   0.0000000   0.0000000   0.0000000   0.0000000   0.0000000   0.0000000   0.0000000   0.0000000
 NQMom=    0.0000000   0.0000000   0.0000000   0.0000000   0.0000000   0.0000000   0.0000000   0.0000000   0.0000000   0.0000000
 NMagM=    0.0000000   0.0000000   2.7928460   2.7928460   2.7928460   2.7928460   2.7928460   2.7928460   2.7928460   2.7928460
 AtZNuc=   6.0000000   0.0000000   1.0000000   1.0000000   1.0000000   1.0000000   1.0000000   1.0000000   1.0000000   1.0000000

  Atom        51          52          53          54          55          56          57          58
 IAtWgt=           1           1           1           1           1           1           1           1
 AtmWgt=   1.0078250   1.0078250   1.0078250   1.0078250   1.0078250   1.0078250   1.0078250   1.0078250
 NucSpn=           1           1           1           1           1           1           1           1
 AtZEff=   0.0000000   0.0000000   0.0000000   0.0000000   0.0000000   0.0000000   0.0000000   0.0000000
 NQMom=    0.0000000   0.0000000   0.0000000   0.0000000   0.0000000   0.0000000   0.0000000   0.0000000
 NMagM=    2.7928460   2.7928460   2.7928460   2.7928460   2.7928460   2.7928460   2.7928460   2.7928460
 AtZNuc=   1.0000000   1.0000000   1.0000000   1.0000000   1.0000000   1.0000000   1.0000000   1.0000000
 Leave Link  101 at Tue Jun 17 02:52:25 2025, MaxMem=  1073741824 cpu:         0.6
 (Enter /opt/g09/l103.exe)

 GradGradGradGradGradGradGradGradGradGradGradGradGradGradGradGradGradGrad
 Berny optimization.
 Initialization pass.
                           ----------------------------
                           !    Initial Parameters    !
                           ! (Angstroms and Degrees)  !
 --------------------------                            --------------------------
 ! Name  Definition              Value          Derivative Info.                !
 --------------------------------------------------------------------------------
 ! X1    R(1,-1)                 0.0            Frozen                          !
 ! Y1    R(1,-2)                 0.0            Frozen                          !
 ! Z1    R(1,-3)                 0.0            Frozen                          !
 ! X2    R(2,-1)                -2.0377         Frozen                          !
 ! Y2    R(2,-2)                -2.5123         Frozen                          !
 ! Z2    R(2,-3)                 0.898          Frozen                          !
 ! X3    R(3,-1)                -0.3279         Frozen                          !
 ! Y3    R(3,-2)                -0.9839         Frozen                          !
 ! Z3    R(3,-3)                 1.6869         Frozen                          !
 ! X4    R(4,-1)                 1.2361         Frozen                          !
 ! Y4    R(4,-2)                 0.1301         Frozen                          !
 ! Z4    R(4,-3)                 3.1656         Frozen                          !
 ! X5    R(5,-1)                 1.3583         Frozen                          !
 ! Y5    R(5,-2)                 1.0882         Frozen                          !
 ! Z5    R(5,-3)                 0.9406         Frozen                          !
 ! X6    R(6,-1)                -1.2416         Frozen                          !
 ! Y6    R(6,-2)                -1.9886         Frozen                          !
 ! Z6    R(6,-3)                 1.8311         Frozen                          !
 ! X7    R(7,-1)                -1.2547         Frozen                          !
 ! Y7    R(7,-2)                -2.4196         Frozen                          !
 ! Z7    R(7,-3)                 3.2157         Frozen                          !
 ! X8    R(8,-1)                -2.0088         Frozen                          !
 ! Y8    R(8,-2)                -3.3855         Frozen                          !
 ! Z8    R(8,-3)                 3.8779         Frozen                          !
 ! X9    R(9,-1)                -1.787          Frozen                          !
 ! Y9    R(9,-2)                -3.5365         Frozen                          !
 ! Z9    R(9,-3)                 5.24           Frozen                          !
 ! X10   R(10,-1)               -0.8444         Frozen                          !
 ! Y10   R(10,-2)               -2.7608         Frozen                          !
 ! Z10   R(10,-3)                5.921          Frozen                          !
 ! X11   R(11,-1)               -0.0812         Frozen                          !
 ! Y11   R(11,-2)               -1.7998         Frozen                          !
 ! Z11   R(11,-3)                5.2563         Frozen                          !
 ! X12   R(12,-1)               -0.3039         Frozen                          !
 ! Y12   R(12,-2)               -1.6464         Frozen                          !
 ! Z12   R(12,-3)                3.8892         Frozen                          !
 ! X13   R(13,-1)                0.2776         Frozen                          !
 ! Y13   R(13,-2)               -0.7475         Frozen                          !
 ! Z13   R(13,-3)                2.8947         Frozen                          !
 ! X14   R(14,-1)                1.7373         Frozen                          !
 ! Y14   R(14,-2)                0.9611         Frozen                          !
 ! Z14   R(14,-3)                2.255          Frozen                          !
 ! X15   R(15,-1)                2.8046         Frozen                          !
 ! Y15   R(15,-2)                1.9153         Frozen                          !
 ! Z15   R(15,-3)                2.5309         Frozen                          !
 ! X16   R(16,-1)                3.5625         Frozen                          !
 ! Y16   R(16,-2)                2.191          Frozen                          !
 ! Z16   R(16,-3)                3.6698         Frozen                          !
 ! X17   R(17,-1)                4.539          Frozen                          !
 ! Y17   R(17,-2)                3.1734         Frozen                          !
 ! Z17   R(17,-3)                3.5694         Frozen                          !
 ! X18   R(18,-1)                4.7558         Frozen                          !
 ! Y18   R(18,-2)                3.868          Frozen                          !
 ! Z18   R(18,-3)                2.3792         Frozen                          !
 ! X19   R(19,-1)                4.0017         Frozen                          !
 ! Y19   R(19,-2)                3.6044         Frozen                          !
 ! Z19   R(19,-3)                1.2404         Frozen                          !
 ! X20   R(20,-1)                3.0289         Frozen                          !
 ! Y20   R(20,-2)                2.6133         Frozen                          !
 ! Z20   R(20,-3)                1.3345         Frozen                          !
 ! X21   R(21,-1)                2.0979         Frozen                          !
 ! Y21   R(21,-2)                2.0755         Frozen                          !
 ! Z21   R(21,-3)                0.3587         Frozen                          !
 ! X22   R(22,-1)                2.0377         Frozen                          !
 ! Y22   R(22,-2)                2.5123         Frozen                          !
 ! Z22   R(22,-3)               -0.898          Frozen                          !
 ! X23   R(23,-1)                0.3279         Frozen                          !
 ! Y23   R(23,-2)                0.9839         Frozen                          !
 ! Z23   R(23,-3)               -1.6869         Frozen                          !
 ! X24   R(24,-1)               -1.2361         Frozen                          !
 ! Y24   R(24,-2)               -0.1301         Frozen                          !
 ! Z24   R(24,-3)               -3.1656         Frozen                          !
 ! X25   R(25,-1)               -1.3583         Frozen                          !
 ! Y25   R(25,-2)               -1.0882         Frozen                          !
 ! Z25   R(25,-3)               -0.9406         Frozen                          !
 ! X26   R(26,-1)                1.2416         Frozen                          !
 ! Y26   R(26,-2)                1.9886         Frozen                          !
 ! Z26   R(26,-3)               -1.8311         Frozen                          !
 ! X27   R(27,-1)                1.2547         Frozen                          !
 ! Y27   R(27,-2)                2.4196         Frozen                          !
 ! Z27   R(27,-3)               -3.2157         Frozen                          !
 ! X28   R(28,-1)                2.0088         Frozen                          !
 ! Y28   R(28,-2)                3.3855         Frozen                          !
 ! Z28   R(28,-3)               -3.8779         Frozen                          !
 ! X29   R(29,-1)                1.787          Frozen                          !
 ! Y29   R(29,-2)                3.5365         Frozen                          !
 ! Z29   R(29,-3)               -5.24           Frozen                          !
 ! X30   R(30,-1)                0.8444         Frozen                          !
 ! Y30   R(30,-2)                2.7608         Frozen                          !
 ! Z30   R(30,-3)               -5.921          Frozen                          !
 ! X31   R(31,-1)                0.0812         Frozen                          !
 ! Y31   R(31,-2)                1.7998         Frozen                          !
 ! Z31   R(31,-3)               -5.2563         Frozen                          !
 ! X32   R(32,-1)                0.3039         Frozen                          !
 ! Y32   R(32,-2)                1.6464         Frozen                          !
 ! Z32   R(32,-3)               -3.8892         Frozen                          !
 ! X33   R(33,-1)               -0.2776         Frozen                          !
 ! Y33   R(33,-2)                0.7475         Frozen                          !
 ! Z33   R(33,-3)               -2.8947         Frozen                          !
 ! X34   R(34,-1)               -1.7373         Frozen                          !
 ! Y34   R(34,-2)               -0.9611         Frozen                          !
 ! Z34   R(34,-3)               -2.255          Frozen                          !
 ! X35   R(35,-1)               -2.8046         Frozen                          !
 ! Y35   R(35,-2)               -1.9153         Frozen                          !
 ! Z35   R(35,-3)               -2.5309         Frozen                          !
 ! X36   R(36,-1)               -3.5625         Frozen                          !
 ! Y36   R(36,-2)               -2.191          Frozen                          !
 ! Z36   R(36,-3)               -3.6698         Frozen                          !
 ! X37   R(37,-1)               -4.539          Frozen                          !
 ! Y37   R(37,-2)               -3.1734         Frozen                          !
 ! Z37   R(37,-3)               -3.5694         Frozen                          !
 ! X38   R(38,-1)               -4.7558         Frozen                          !
 ! Y38   R(38,-2)               -3.868          Frozen                          !
 ! Z38   R(38,-3)               -2.3792         Frozen                          !
 ! X39   R(39,-1)               -4.0017         Frozen                          !
 ! Y39   R(39,-2)               -3.6044         Frozen                          !
 ! Z39   R(39,-3)               -1.2404         Frozen                          !
 ! X40   R(40,-1)               -3.0289         Frozen                          !
 ! Y40   R(40,-2)               -2.6133         Frozen                          !
 ! Z40   R(40,-3)               -1.3345         Frozen                          !
 ! X41   R(41,-1)               -2.0979         Frozen                          !
 ! Y41   R(41,-2)               -2.0755         Frozen                          !
 ! Z41   R(41,-3)               -0.3587         Frozen                          !
 ! X42   R(42,-1)                0.0            Frozen                          !
 ! Y42   R(42,-2)                4.8538         Frozen                          !
 ! Z42   R(42,-3)                0.0            Frozen                          !
 ! R1    R(8,54)                 1.07           estimate D2E/DX2                !
 ! R2    R(9,53)                 1.07           estimate D2E/DX2                !
 ! R3    R(10,52)                1.07           estimate D2E/DX2                !
 ! R4    R(11,51)                1.07           estimate D2E/DX2                !
 ! R5    R(16,50)                1.07           estimate D2E/DX2                !
 ! R6    R(17,49)                1.07           estimate D2E/DX2                !
 ! R7    R(18,48)                1.07           estimate D2E/DX2                !
 ! R8    R(19,47)                1.07           estimate D2E/DX2                !
 ! R9    R(28,46)                1.07           estimate D2E/DX2                !
 ! R10   R(29,45)                1.07           estimate D2E/DX2                !
 ! R11   R(30,44)                1.07           estimate D2E/DX2                !
 ! R12   R(31,43)                1.07           estimate D2E/DX2                !
 ! R13   R(36,58)                1.07           estimate D2E/DX2                !
 ! R14   R(37,57)                1.07           estimate D2E/DX2                !
 ! R15   R(38,56)                1.07           estimate D2E/DX2                !
 ! R16   R(39,55)                1.07           estimate D2E/DX2                !
 ! A1    A(7,8,54)             121.4551         estimate D2E/DX2                !
 ! A2    A(9,8,54)             121.4551         estimate D2E/DX2                !
 ! A3    A(8,9,53)             119.1518         estimate D2E/DX2                !
 ! A4    A(10,9,53)            119.1518         estimate D2E/DX2                !
 ! A5    A(9,10,52)            119.3742         estimate D2E/DX2                !
 ! A6    A(11,10,52)           119.3742         estimate D2E/DX2                !
 ! A7    A(10,11,51)           121.4478         estimate D2E/DX2                !
 ! A8    A(12,11,51)           121.4478         estimate D2E/DX2                !
 ! A9    A(15,16,50)           121.2195         estimate D2E/DX2                !
 ! A10   A(17,16,50)           121.2195         estimate D2E/DX2                !
 ! A11   A(16,17,49)           119.2297         estimate D2E/DX2                !
 ! A12   A(18,17,49)           119.2297         estimate D2E/DX2                !
 ! A13   A(17,18,48)           119.3365         estimate D2E/DX2                !
 ! A14   A(19,18,48)           119.3365         estimate D2E/DX2                !
 ! A15   A(18,19,47)           121.3565         estimate D2E/DX2                !
 ! A16   A(20,19,47)           121.3565         estimate D2E/DX2                !
 ! A17   A(27,28,46)           121.4551         estimate D2E/DX2                !
 ! A18   A(29,28,46)           121.4551         estimate D2E/DX2                !
 ! A19   A(28,29,45)           119.1518         estimate D2E/DX2                !
 ! A20   A(30,29,45)           119.1518         estimate D2E/DX2                !
 ! A21   A(29,30,44)           119.3742         estimate D2E/DX2                !
 ! A22   A(31,30,44)           119.3742         estimate D2E/DX2                !
 ! A23   A(30,31,43)           121.4478         estimate D2E/DX2                !
 ! A24   A(32,31,43)           121.4478         estimate D2E/DX2                !
 ! A25   A(35,36,58)           121.2195         estimate D2E/DX2                !
 ! A26   A(37,36,58)           121.2195         estimate D2E/DX2                !
 ! A27   A(36,37,57)           119.2297         estimate D2E/DX2                !
 ! A28   A(38,37,57)           119.2297         estimate D2E/DX2                !
 ! A29   A(37,38,56)           119.3365         estimate D2E/DX2                !
 ! A30   A(39,38,56)           119.3365         estimate D2E/DX2                !
 ! A31   A(38,39,55)           121.3565         estimate D2E/DX2                !
 ! A32   A(40,39,55)           121.3565         estimate D2E/DX2                !
 ! D1    D(6,7,8,54)             1.0989         estimate D2E/DX2                !
 ! D2    D(12,7,8,54)         -179.2384         estimate D2E/DX2                !
 ! D3    D(7,8,9,53)           179.6671         estimate D2E/DX2                !
 ! D4    D(54,8,9,10)          179.6671         estimate D2E/DX2                !
 ! D5    D(54,8,9,53)           -0.3329         estimate D2E/DX2                !
 ! D6    D(8,9,10,52)          179.8534         estimate D2E/DX2                !
 ! D7    D(53,9,10,11)         179.8534         estimate D2E/DX2                !
 ! D8    D(53,9,10,52)          -0.1466         estimate D2E/DX2                !
 ! D9    D(9,10,11,51)        -179.7977         estimate D2E/DX2                !
 ! D10   D(52,10,11,12)       -179.7977         estimate D2E/DX2                !
 ! D11   D(52,10,11,51)          0.2023         estimate D2E/DX2                !
 ! D12   D(51,11,12,7)        -179.775          estimate D2E/DX2                !
 ! D13   D(51,11,12,13)         -1.1304         estimate D2E/DX2                !
 ! D14   D(14,15,16,50)         -1.2919         estimate D2E/DX2                !
 ! D15   D(20,15,16,50)        179.9085         estimate D2E/DX2                !
 ! D16   D(15,16,17,49)       -179.6941         estimate D2E/DX2                !
 ! D17   D(50,16,17,18)       -179.6941         estimate D2E/DX2                !
 ! D18   D(50,16,17,49)          0.3059         estimate D2E/DX2                !
 ! D19   D(16,17,18,48)        179.9619         estimate D2E/DX2                !
 ! D20   D(49,17,18,19)        179.9619         estimate D2E/DX2                !
 ! D21   D(49,17,18,48)         -0.0381         estimate D2E/DX2                !
 ! D22   D(17,18,19,47)        179.5614         estimate D2E/DX2                !
 ! D23   D(48,18,19,20)        179.5614         estimate D2E/DX2                !
 ! D24   D(48,18,19,47)         -0.4386         estimate D2E/DX2                !
 ! D25   D(47,19,20,15)       -179.3462         estimate D2E/DX2                !
 ! D26   D(47,19,20,21)          1.2039         estimate D2E/DX2                !
 ! D27   D(26,27,28,46)         -1.0989         estimate D2E/DX2                !
 ! D28   D(32,27,28,46)        179.2384         estimate D2E/DX2                !
 ! D29   D(27,28,29,45)       -179.6671         estimate D2E/DX2                !
 ! D30   D(46,28,29,30)       -179.6671         estimate D2E/DX2                !
 ! D31   D(46,28,29,45)          0.3329         estimate D2E/DX2                !
 ! D32   D(28,29,30,44)       -179.8534         estimate D2E/DX2                !
 ! D33   D(45,29,30,31)       -179.8534         estimate D2E/DX2                !
 ! D34   D(45,29,30,44)          0.1466         estimate D2E/DX2                !
 ! D35   D(29,30,31,43)        179.7977         estimate D2E/DX2                !
 ! D36   D(44,30,31,32)        179.7977         estimate D2E/DX2                !
 ! D37   D(44,30,31,43)         -0.2023         estimate D2E/DX2                !
 ! D38   D(43,31,32,27)        179.775          estimate D2E/DX2                !
 ! D39   D(43,31,32,33)          1.1304         estimate D2E/DX2                !
 ! D40   D(34,35,36,58)          1.2919         estimate D2E/DX2                !
 ! D41   D(40,35,36,58)       -179.9085         estimate D2E/DX2                !
 ! D42   D(35,36,37,57)        179.6941         estimate D2E/DX2                !
 ! D43   D(58,36,37,38)        179.6941         estimate D2E/DX2                !
 ! D44   D(58,36,37,57)         -0.3059         estimate D2E/DX2                !
 ! D45   D(36,37,38,56)       -179.9619         estimate D2E/DX2                !
 ! D46   D(57,37,38,39)       -179.9619         estimate D2E/DX2                !
 ! D47   D(57,37,38,56)          0.0381         estimate D2E/DX2                !
 ! D48   D(37,38,39,55)       -179.5614         estimate D2E/DX2                !
 ! D49   D(56,38,39,40)       -179.5614         estimate D2E/DX2                !
 ! D50   D(56,38,39,55)          0.4386         estimate D2E/DX2                !
 ! D51   D(55,39,40,35)        179.3462         estimate D2E/DX2                !
 ! D52   D(55,39,40,41)         -1.2039         estimate D2E/DX2                !
 --------------------------------------------------------------------------------
 Trust Radius=3.00D-01 FncErr=1.00D-07 GrdErr=1.00D-06
 Number of steps in this run=    236 maximum allowed number of steps=    348.
 GradGradGradGradGradGradGradGradGradGradGradGradGradGradGradGradGradGrad

 Leave Link  103 at Tue Jun 17 02:52:25 2025, MaxMem=  1073741824 cpu:         0.0
 (Enter /opt/g09/l202.exe)
 Symmetry turned off:
 Cannot cope with ghost atoms or with translation vectors.
 Stoichiometry    C32H16N8Zn
 Framework group  C1[X(C32H16N8Zn)]
 NUMDOF-- NAT=    57 NAtoms=    58
 Deg. of freedom     0
 Full point group                 C1      NOp   1
                          Input orientation:                          
 ---------------------------------------------------------------------
 Center     Atomic      Atomic             Coordinates (Angstroms)
 Number     Number       Type             X           Y           Z
 ---------------------------------------------------------------------
      1         30           0        0.000000    0.000000    0.000000
      2          7           0       -2.037693   -2.512327    0.897998
      3          7           0       -0.327903   -0.983865    1.686881
      4          7           0        1.236086    0.130082    3.165567
      5          7           0        1.358344    1.088222    0.940640
      6          6           0       -1.241576   -1.988602    1.831113
      7          6           0       -1.254731   -2.419619    3.215735
      8          6           0       -2.008771   -3.385526    3.877945
      9          6           0       -1.786988   -3.536479    5.239992
     10          6           0       -0.844423   -2.760841    5.921015
     11          6           0       -0.081198   -1.799789    5.256296
     12          6           0       -0.303883   -1.646409    3.889233
     13          6           0        0.277641   -0.747485    2.894663
     14          6           0        1.737313    0.961052    2.255028
     15          6           0        2.804594    1.915309    2.530949
     16          6           0        3.562528    2.191005    3.669750
     17          6           0        4.539025    3.173414    3.569415
     18          6           0        4.755783    3.867993    2.379192
     19          6           0        4.001704    3.604432    1.240391
     20          6           0        3.028898    2.613286    1.334455
     21          6           0        2.097905    2.075485    0.358697
     22          7           0        2.037693    2.512327   -0.897998
     23          7           0        0.327903    0.983865   -1.686881
     24          7           0       -1.236086   -0.130082   -3.165567
     25          7           0       -1.358344   -1.088222   -0.940640
     26          6           0        1.241576    1.988602   -1.831113
     27          6           0        1.254731    2.419619   -3.215735
     28          6           0        2.008771    3.385526   -3.877945
     29          6           0        1.786988    3.536479   -5.239992
     30          6           0        0.844423    2.760841   -5.921015
     31          6           0        0.081198    1.799789   -5.256296
     32          6           0        0.303883    1.646409   -3.889233
     33          6           0       -0.277641    0.747485   -2.894663
     34          6           0       -1.737313   -0.961052   -2.255028
     35          6           0       -2.804594   -1.915309   -2.530949
     36          6           0       -3.562528   -2.191005   -3.669750
     37          6           0       -4.539025   -3.173414   -3.569415
     38          6           0       -4.755783   -3.867993   -2.379192
     39          6           0       -4.001704   -3.604432   -1.240391
     40          6           0       -3.028898   -2.613286   -1.334455
     41          6           0       -2.097905   -2.075485   -0.358697
     42          0           0        0.000000    4.853800    0.000000
     43          1           0       -0.643424    1.206549   -5.773877
     44          1           0        0.705378    2.906646   -6.971876
     45          1           0        2.352120    4.265341   -5.782473
     46          1           0        2.727585    3.985011   -3.359464
     47          1           0        4.162886    4.141709    0.329208
     48          1           0        5.517416    4.618589    2.341491
     49          1           0        5.139141    3.402925    4.425035
     50          1           0        3.397389    1.664778    4.586655
     51          1           0        0.643424   -1.206549    5.773877
     52          1           0       -0.705378   -2.906646    6.971876
     53          1           0       -2.352120   -4.265341    5.782473
     54          1           0       -2.727585   -3.985011    3.359464
     55          1           0       -4.162886   -4.141709   -0.329208
     56          1           0       -5.517416   -4.618589   -2.341491
     57          1           0       -5.139141   -3.402925   -4.425035
     58          1           0       -3.397389   -1.664778   -4.586655
 ---------------------------------------------------------------------
 Rotational constants (GHZ):      0.0900388      0.0891227      0.0448025
 Leave Link  202 at Tue Jun 17 02:52:25 2025, MaxMem=  1073741824 cpu:         0.0
 (Enter /opt/g09/l301.exe)
 Standard basis: 6-31G(d,p) (6D, 7F)
 Warning:  center  42 has no basis functions!
 Ernie: Thresh=  0.10000D-02 Tol=  0.10000D-05 Strict=F.
   716 basis functions,  1336 primitive gaussians,   719 cartesian basis functions
   147 alpha electrons      147 beta electrons
       nuclear repulsion energy      5059.5014993568 Hartrees.
 IExCor=  408 DFT=T Ex+Corr=B3PW91 ExCW=0 ScaHFX=  0.200000
 ScaDFX=  0.800000  0.720000  1.000000  0.810000 ScalE2=  1.000000  1.000000
 IRadAn=      0 IRanWt=     -1 IRanGd=            0 ICorTp=0 IEmpDi=  4
 NAtoms=   58 NActive=   58 NUniq=   58 SFac= 1.00D+00 NAtFMM=   60 NAOKFM=F Big=F
 Integral buffers will be    131072 words long.
 Raffenetti 2 integral format.
 Two-electron integral symmetry is turned off.
 Leave Link  301 at Tue Jun 17 02:52:25 2025, MaxMem=  1073741824 cpu:         0.1
 (Enter /opt/g09/l302.exe)
 NPDir=0 NMtPBC=     1 NCelOv=     1 NCel=       1 NClECP=     1 NCelD=      1
         NCelK=      1 NCelE2=     1 NClLst=     1 CellRange=     0.0.
 One-electron integrals computed using PRISM.
 NBasis=   716 RedAO= T EigKep=  2.48D-04  NBF=   716
 NBsUse=   716 1.00D-06 EigRej= -1.00D+00 NBFU=   716
 Precomputing XC quadrature grid using
 IXCGrd= 4 IRadAn=           0 IRanWt=          -1 IRanGd=           0 AccXCQ= 0.00D+00.
 Generated NRdTot=       0 NPtTot=           0 NUsed=           0 NTot=          32
 NSgBfM=   676   676   676   676   676 MxSgAt=    58 MxSgA2=    57.
 Leave Link  302 at Tue Jun 17 02:52:26 2025, MaxMem=  1073741824 cpu:         2.7
 (Enter /opt/g09/l303.exe)
 DipDrv:  MaxL=1.
 Leave Link  303 at Tue Jun 17 02:52:26 2025, MaxMem=  1073741824 cpu:         0.2
 (Enter /opt/g09/l401.exe)
 ExpMin= 4.93D-02 ExpMax= 8.24D+04 ExpMxC= 1.24D+04 IAcc=2 IRadAn=         4 AccDes= 0.00D+00
 Harris functional with IExCor=  408 and IRadAn=       4 diagonalized for initial guess.
 HarFok:  IExCor=  408 AccDes= 0.00D+00 IRadAn=         4 IDoV= 1 UseB2=F ITyADJ=14
 ICtDFT=  3500011 ScaDFX=  1.000000  1.000000  1.000000  1.000000
 FoFCou: FMM=F IPFlag=           0 FMFlag=      100000 FMFlg1=           0
         NFxFlg=           0 DoJE=T BraDBF=F KetDBF=T FulRan=T
         wScrn=  0.000000 ICntrl=     500 IOpCl=  0 I1Cent=   200000004 NGrid=           0
         NMat0=    1 NMatS0=      1 NMatT0=    0 NMatD0=    1 NMtDS0=    0 NMtDT0=    0
 Symmetry not used in FoFCou.
 Harris En= -3446.61072234795    
 JPrj=0 DoOrth=F DoCkMO=F.
 Leave Link  401 at Tue Jun 17 02:52:36 2025, MaxMem=  1073741824 cpu:        19.4
 (Enter /opt/g09/l502.exe)
 Closed shell SCF:
 Using DIIS extrapolation, IDIIS=  1040.
 Two-electron integral symmetry not used.
 IVT=     1578177 IEndB=     1578177 NGot=  1073741824 MDV=  1072697968
 LenX=  1072697968 LenY=  1072180288
 Requested convergence on RMS density matrix=1.00D-08 within 128 cycles.
 Requested convergence on MAX density matrix=1.00D-06.
 Requested convergence on             energy=1.00D-06.
 No special actions if energy rises.
 Fock matrices will be formed incrementally for  20 cycles.

 Cycle   1  Pass 1  IDiag  1:
 FoFJK:  IHMeth= 1 ICntrl=       0 DoSepK=F KAlg= 0 I1Cent=   0 FoldK=F
 IRaf= 520000000 NMat=   1 IRICut=       1 DoRegI=T DoRafI=F ISym2E= 0.
 FoFCou: FMM=F IPFlag=           0 FMFlag=      100000 FMFlg1=           0
         NFxFlg=           0 DoJE=F BraDBF=F KetDBF=F FulRan=T
         wScrn=  0.000000 ICntrl=       0 IOpCl=  0 I1Cent=           0 NGrid=           0
         NMat0=    1 NMatS0=      1 NMatT0=    0 NMatD0=    1 NMtDS0=    0 NMtDT0=    0
 Symmetry not used in FoFCou.
 E= -3445.04284335685    
 DIIS: error= 4.17D-02 at cycle   1 NSaved=   1.
 NSaved= 1 IEnMin= 1 EnMin= -3445.04284335685     IErMin= 1 ErrMin= 4.17D-02
 ErrMax= 4.17D-02  0.00D+00 EMaxC= 1.00D-01 BMatC= 8.52D-01 BMatP= 8.52D-01
 IDIUse=3 WtCom= 5.83D-01 WtEn= 4.17D-01
 Coeff-Com:  0.100D+01
 Coeff-En:   0.100D+01
 Coeff:      0.100D+01
 Gap=     0.094 Goal=   None    Shift=    0.000
 GapD=    0.094 DampG=0.500 DampE=0.250 DampFc=0.1250 IDamp=-1.
 Damping current iteration by 1.25D-01
 RMSDP=3.52D-03 MaxDP=1.15D-01              OVMax= 2.35D-01

 Cycle   2  Pass 1  IDiag  1:
 RMSU=  4.16D-04    CP:  9.90D-01
 E= -3445.18998628017     Delta-E=       -0.147142923328 Rises=F Damp=T
 DIIS: error= 3.58D-02 at cycle   2 NSaved=   2.
 NSaved= 2 IEnMin= 2 EnMin= -3445.18998628017     IErMin= 2 ErrMin= 3.58D-02
 ErrMax= 3.58D-02  0.00D+00 EMaxC= 1.00D-01 BMatC= 4.75D-01 BMatP= 8.52D-01
 IDIUse=3 WtCom= 6.42D-01 WtEn= 3.58D-01
 Coeff-Com: -0.252D+01 0.352D+01
 Coeff-En:   0.000D+00 0.100D+01
 Coeff:     -0.162D+01 0.262D+01
 Gap=     0.103 Goal=   None    Shift=    0.000
 RMSDP=2.13D-03 MaxDP=9.62D-02 DE=-1.47D-01 OVMax= 1.60D-01

 Cycle   3  Pass 1  IDiag  1:
 RMSU=  1.29D-03    CP:  9.34D-01  3.00D+00
 E= -3445.66669240483     Delta-E=       -0.476706124653 Rises=F Damp=F
 DIIS: error= 1.12D-02 at cycle   3 NSaved=   3.
 NSaved= 3 IEnMin= 3 EnMin= -3445.66669240483     IErMin= 3 ErrMin= 1.12D-02
 ErrMax= 1.12D-02  0.00D+00 EMaxC= 1.00D-01 BMatC= 6.44D-02 BMatP= 4.75D-01
 IDIUse=3 WtCom= 8.88D-01 WtEn= 1.12D-01
 Coeff-Com:  0.118D+00 0.102D+00 0.781D+00
 Coeff-En:   0.000D+00 0.000D+00 0.100D+01
 Coeff:      0.104D+00 0.902D-01 0.805D+00
 Gap=     0.076 Goal=   None    Shift=    0.000
 RMSDP=6.75D-04 MaxDP=3.16D-02 DE=-4.77D-01 OVMax= 7.46D-02

 Cycle   4  Pass 1  IDiag  1:
 RMSU=  5.37D-04    CP:  9.43D-01  3.00D+00  6.99D-01
 E= -3445.68788519898     Delta-E=       -0.021192794156 Rises=F Damp=F
 DIIS: error= 6.12D-03 at cycle   4 NSaved=   4.
 NSaved= 4 IEnMin= 4 EnMin= -3445.68788519898     IErMin= 4 ErrMin= 6.12D-03
 ErrMax= 6.12D-03  0.00D+00 EMaxC= 1.00D-01 BMatC= 3.10D-02 BMatP= 6.44D-02
 IDIUse=3 WtCom= 9.39D-01 WtEn= 6.12D-02
 Coeff-Com:  0.384D+00-0.367D+00 0.559D+00 0.424D+00
 Coeff-En:   0.000D+00 0.000D+00 0.366D+00 0.634D+00
 Coeff:      0.361D+00-0.344D+00 0.547D+00 0.437D+00
 Gap=     0.081 Goal=   None    Shift=    0.000
 RMSDP=3.40D-04 MaxDP=1.69D-02 DE=-2.12D-02 OVMax= 5.95D-02

 Cycle   5  Pass 1  IDiag  1:
 RMSU=  1.88D-04    CP:  9.41D-01  3.00D+00  7.88D-01  5.20D-01
 E= -3445.71947902592     Delta-E=       -0.031593826936 Rises=F Damp=F
 DIIS: error= 1.37D-03 at cycle   5 NSaved=   5.
 NSaved= 5 IEnMin= 5 EnMin= -3445.71947902592     IErMin= 5 ErrMin= 1.37D-03
 ErrMax= 1.37D-03  0.00D+00 EMaxC= 1.00D-01 BMatC= 1.75D-03 BMatP= 3.10D-02
 IDIUse=3 WtCom= 9.86D-01 WtEn= 1.37D-02
 Coeff-Com:  0.164D+00-0.180D+00 0.194D+00 0.239D+00 0.583D+00
 Coeff-En:   0.000D+00 0.000D+00 0.000D+00 0.000D+00 0.100D+01
 Coeff:      0.162D+00-0.178D+00 0.191D+00 0.236D+00 0.589D+00
 Gap=     0.080 Goal=   None    Shift=    0.000
 RMSDP=7.37D-05 MaxDP=4.03D-03 DE=-3.16D-02 OVMax= 7.44D-03

 Cycle   6  Pass 1  IDiag  1:
 RMSU=  4.90D-05    CP:  9.41D-01  3.00D+00  7.90D-01  5.30D-01  7.09D-01
 E= -3445.72091713611     Delta-E=       -0.001438110192 Rises=F Damp=F
 DIIS: error= 4.93D-04 at cycle   6 NSaved=   6.
 NSaved= 6 IEnMin= 6 EnMin= -3445.72091713611     IErMin= 6 ErrMin= 4.93D-04
 ErrMax= 4.93D-04  0.00D+00 EMaxC= 1.00D-01 BMatC= 1.55D-04 BMatP= 1.75D-03
 IDIUse=3 WtCom= 9.95D-01 WtEn= 4.93D-03
 Coeff-Com:  0.632D-01-0.715D-01 0.764D-01 0.109D+00 0.338D+00 0.486D+00
 Coeff-En:   0.000D+00 0.000D+00 0.000D+00 0.000D+00 0.000D+00 0.100D+01
 Coeff:      0.629D-01-0.711D-01 0.760D-01 0.108D+00 0.336D+00 0.488D+00
 Gap=     0.080 Goal=   None    Shift=    0.000
 RMSDP=2.43D-05 MaxDP=1.75D-03 DE=-1.44D-03 OVMax= 3.37D-03

 Cycle   7  Pass 1  IDiag  1:
 RMSU=  1.43D-05    CP:  9.41D-01  3.00D+00  7.90D-01  5.41D-01  7.39D-01
                    CP:  6.36D-01
 E= -3445.72104315807     Delta-E=       -0.000126021963 Rises=F Damp=F
 DIIS: error= 1.39D-04 at cycle   7 NSaved=   7.
 NSaved= 7 IEnMin= 7 EnMin= -3445.72104315807     IErMin= 7 ErrMin= 1.39D-04
 ErrMax= 1.39D-04  0.00D+00 EMaxC= 1.00D-01 BMatC= 1.76D-05 BMatP= 1.55D-04
 IDIUse=3 WtCom= 9.99D-01 WtEn= 1.39D-03
 Coeff-Com:  0.149D-01-0.172D-01 0.220D-01 0.365D-01 0.138D+00 0.295D+00
 Coeff-Com:  0.511D+00
 Coeff-En:   0.000D+00 0.000D+00 0.000D+00 0.000D+00 0.000D+00 0.643D-01
 Coeff-En:   0.936D+00
 Coeff:      0.149D-01-0.172D-01 0.220D-01 0.365D-01 0.137D+00 0.295D+00
 Coeff:      0.512D+00
 Gap=     0.080 Goal=   None    Shift=    0.000
 RMSDP=7.17D-06 MaxDP=3.66D-04 DE=-1.26D-04 OVMax= 9.41D-04

 Cycle   8  Pass 1  IDiag  1:
 RMSU=  2.77D-06    CP:  9.41D-01  3.00D+00  7.91D-01  5.42D-01  7.38D-01
                    CP:  6.58D-01  5.59D-01
 E= -3445.72105776105     Delta-E=       -0.000014602976 Rises=F Damp=F
 DIIS: error= 2.57D-05 at cycle   8 NSaved=   8.
 NSaved= 8 IEnMin= 8 EnMin= -3445.72105776105     IErMin= 8 ErrMin= 2.57D-05
 ErrMax= 2.57D-05  0.00D+00 EMaxC= 1.00D-01 BMatC= 7.81D-07 BMatP= 1.76D-05
 IDIUse=1 WtCom= 1.00D+00 WtEn= 0.00D+00
 Coeff-Com:  0.402D-02-0.474D-02 0.741D-02 0.133D-01 0.549D-01 0.128D+00
 Coeff-Com:  0.268D+00 0.529D+00
 Coeff:      0.402D-02-0.474D-02 0.741D-02 0.133D-01 0.549D-01 0.128D+00
 Coeff:      0.268D+00 0.529D+00
 Gap=     0.080 Goal=   None    Shift=    0.000
 RMSDP=2.08D-06 MaxDP=1.19D-04 DE=-1.46D-05 OVMax= 3.58D-04

 Cycle   9  Pass 1  IDiag  1:
 RMSU=  1.34D-06    CP:  9.41D-01  3.00D+00  7.91D-01  5.43D-01  7.38D-01
                    CP:  6.54D-01  5.94D-01  4.66D-01
 E= -3445.72105827218     Delta-E=       -0.000000511125 Rises=F Damp=F
 DIIS: error= 1.70D-05 at cycle   9 NSaved=   9.
 NSaved= 9 IEnMin= 9 EnMin= -3445.72105827218     IErMin= 9 ErrMin= 1.70D-05
 ErrMax= 1.70D-05  0.00D+00 EMaxC= 1.00D-01 BMatC= 2.65D-07 BMatP= 7.81D-07
 IDIUse=1 WtCom= 1.00D+00 WtEn= 0.00D+00
 Coeff-Com: -0.131D-03 0.959D-04 0.959D-03 0.227D-02 0.125D-01 0.326D-01
 Coeff-Com:  0.900D-01 0.377D+00 0.484D+00
 Coeff:     -0.131D-03 0.959D-04 0.959D-03 0.227D-02 0.125D-01 0.326D-01
 Coeff:      0.900D-01 0.377D+00 0.484D+00
 Gap=     0.080 Goal=   None    Shift=    0.000
 RMSDP=1.02D-06 MaxDP=6.98D-05 DE=-5.11D-07 OVMax= 1.69D-04

 Cycle  10  Pass 1  IDiag  1:
 RMSU=  4.80D-07    CP:  9.41D-01  3.00D+00  7.91D-01  5.43D-01  7.38D-01
                    CP:  6.54D-01  5.90D-01  6.40D-01  4.40D-01
 E= -3445.72105852318     Delta-E=       -0.000000251001 Rises=F Damp=F
 DIIS: error= 4.45D-06 at cycle  10 NSaved=  10.
 NSaved=10 IEnMin=10 EnMin= -3445.72105852318     IErMin=10 ErrMin= 4.45D-06
 ErrMax= 4.45D-06  0.00D+00 EMaxC= 1.00D-01 BMatC= 2.87D-08 BMatP= 2.65D-07
 IDIUse=1 WtCom= 1.00D+00 WtEn= 0.00D+00
 Coeff-Com: -0.471D-03 0.521D-03-0.870D-04 0.193D-03 0.298D-02 0.908D-02
 Coeff-Com:  0.342D-01 0.197D+00 0.318D+00 0.438D+00
 Coeff:     -0.471D-03 0.521D-03-0.870D-04 0.193D-03 0.298D-02 0.908D-02
 Coeff:      0.342D-01 0.197D+00 0.318D+00 0.438D+00
 Gap=     0.080 Goal=   None    Shift=    0.000
 RMSDP=3.03D-07 MaxDP=1.38D-05 DE=-2.51D-07 OVMax= 5.01D-05

 Cycle  11  Pass 1  IDiag  1:
 RMSU=  1.81D-07    CP:  9.41D-01  3.00D+00  7.91D-01  5.43D-01  7.38D-01
                    CP:  6.53D-01  5.90D-01  6.27D-01  5.44D-01  6.12D-01
 E= -3445.72105855177     Delta-E=       -0.000000028589 Rises=F Damp=F
 DIIS: error= 1.22D-06 at cycle  11 NSaved=  11.
 NSaved=11 IEnMin=11 EnMin= -3445.72105855177     IErMin=11 ErrMin= 1.22D-06
 ErrMax= 1.22D-06  0.00D+00 EMaxC= 1.00D-01 BMatC= 1.18D-09 BMatP= 2.87D-08
 IDIUse=1 WtCom= 1.00D+00 WtEn= 0.00D+00
 Coeff-Com: -0.181D-03 0.204D-03-0.183D-03-0.243D-03-0.391D-03-0.133D-03
 Coeff-Com:  0.510D-02 0.411D-01 0.812D-01 0.206D+00 0.668D+00
 Coeff:     -0.181D-03 0.204D-03-0.183D-03-0.243D-03-0.391D-03-0.133D-03
 Coeff:      0.510D-02 0.411D-01 0.812D-01 0.206D+00 0.668D+00
 Gap=     0.080 Goal=   None    Shift=    0.000
 RMSDP=7.49D-08 MaxDP=3.71D-06 DE=-2.86D-08 OVMax= 1.02D-05

 Cycle  12  Pass 1  IDiag  1:
 RMSU=  4.47D-08    CP:  9.41D-01  3.00D+00  7.91D-01  5.43D-01  7.38D-01
                    CP:  6.53D-01  5.91D-01  6.32D-01  5.46D-01  6.71D-01
                    CP:  7.64D-01
 E= -3445.72105855261     Delta-E=       -0.000000000840 Rises=F Damp=F
 DIIS: error= 5.23D-07 at cycle  12 NSaved=  12.
 NSaved=12 IEnMin=12 EnMin= -3445.72105855261     IErMin=12 ErrMin= 5.23D-07
 ErrMax= 5.23D-07  0.00D+00 EMaxC= 1.00D-01 BMatC= 2.78D-10 BMatP= 1.18D-09
 IDIUse=1 WtCom= 1.00D+00 WtEn= 0.00D+00
 Coeff-Com: -0.395D-04 0.447D-04-0.852D-04-0.140D-03-0.451D-03-0.826D-03
 Coeff-Com:  0.262D-03 0.624D-02 0.188D-01 0.877D-01 0.429D+00 0.460D+00
 Coeff:     -0.395D-04 0.447D-04-0.852D-04-0.140D-03-0.451D-03-0.826D-03
 Coeff:      0.262D-03 0.624D-02 0.188D-01 0.877D-01 0.429D+00 0.460D+00
 Gap=     0.080 Goal=   None    Shift=    0.000
 RMSDP=2.87D-08 MaxDP=1.83D-06 DE=-8.40D-10 OVMax= 3.27D-06

 Cycle  13  Pass 1  IDiag  1:
 RMSU=  1.23D-08    CP:  9.41D-01  3.00D+00  7.91D-01  5.43D-01  7.38D-01
                    CP:  6.54D-01  5.91D-01  6.32D-01  5.46D-01  6.74D-01
                    CP:  8.24D-01  5.34D-01
 E= -3445.72105855293     Delta-E=       -0.000000000320 Rises=F Damp=F
 DIIS: error= 5.71D-08 at cycle  13 NSaved=  13.
 NSaved=13 IEnMin=13 EnMin= -3445.72105855293     IErMin=13 ErrMin= 5.71D-08
 ErrMax= 5.71D-08  0.00D+00 EMaxC= 1.00D-01 BMatC= 2.69D-12 BMatP= 2.78D-10
 IDIUse=1 WtCom= 1.00D+00 WtEn= 0.00D+00
 Coeff-Com:  0.623D-05-0.711D-05-0.768D-05-0.162D-04-0.997D-04-0.248D-03
 Coeff-Com: -0.378D-03-0.246D-02-0.362D-02 0.112D-02 0.396D-01 0.870D-01
 Coeff-Com:  0.879D+00
 Coeff:      0.623D-05-0.711D-05-0.768D-05-0.162D-04-0.997D-04-0.248D-03
 Coeff:     -0.378D-03-0.246D-02-0.362D-02 0.112D-02 0.396D-01 0.870D-01
 Coeff:      0.879D+00
 Gap=     0.080 Goal=   None    Shift=    0.000
 RMSDP=4.91D-09 MaxDP=1.20D-07 DE=-3.20D-10 OVMax= 6.82D-07

 SCF Done:  E(RB3PW91) =  -3445.72105855     A.U. after   13 cycles
            NFock= 13  Conv=0.49D-08     -V/T= 2.0052
 KE= 3.428064272050D+03 PE=-1.824712437836D+04 EE= 6.313837548402D+03
 Leave Link  502 at Tue Jun 17 03:03:10 2025, MaxMem=  1073741824 cpu:      1267.0
 (Enter /opt/g09/l601.exe)
 Copying SCF densities to generalized density rwf, IOpCl= 0 IROHF=0.

 **********************************************************************

            Population analysis using the SCF density.

 **********************************************************************

 Alpha  occ. eigenvalues -- -347.21981 -42.21234 -37.19722 -37.19086 -37.19082
 Alpha  occ. eigenvalues --  -14.34541 -14.34541 -14.34508 -14.34508 -14.33434
 Alpha  occ. eigenvalues --  -14.33434 -14.33339 -14.33339 -10.25588 -10.25587
 Alpha  occ. eigenvalues --  -10.25530 -10.25530 -10.25417 -10.25416 -10.25401
 Alpha  occ. eigenvalues --  -10.25401 -10.18899 -10.18899 -10.18855 -10.18855
 Alpha  occ. eigenvalues --  -10.18798 -10.18798 -10.18770 -10.18770 -10.18747
 Alpha  occ. eigenvalues --  -10.18747 -10.18719 -10.18719 -10.18692 -10.18692
 Alpha  occ. eigenvalues --  -10.18662 -10.18662 -10.18603 -10.18603 -10.18532
 Alpha  occ. eigenvalues --  -10.18532 -10.18483 -10.18483 -10.18477 -10.18477
 Alpha  occ. eigenvalues --   -4.80476  -3.20132  -3.19049  -3.19027  -1.01777
 Alpha  occ. eigenvalues --   -1.00367  -1.00285  -0.97572  -0.95155  -0.91224
 Alpha  occ. eigenvalues --   -0.90921  -0.87920  -0.86389  -0.86350  -0.86322
 Alpha  occ. eigenvalues --   -0.86281  -0.78102  -0.77080  -0.76915  -0.76862
 Alpha  occ. eigenvalues --   -0.76472  -0.76435  -0.76414  -0.76075  -0.72645
 Alpha  occ. eigenvalues --   -0.69969  -0.69936  -0.64614  -0.64423  -0.63776
 Alpha  occ. eigenvalues --   -0.63746  -0.63006  -0.62624  -0.60124  -0.60073
 Alpha  occ. eigenvalues --   -0.59876  -0.59100  -0.56329  -0.55595  -0.55487
 Alpha  occ. eigenvalues --   -0.54046  -0.53857  -0.53816  -0.50575  -0.50492
 Alpha  occ. eigenvalues --   -0.49571  -0.49471  -0.48638  -0.48606  -0.46973
 Alpha  occ. eigenvalues --   -0.46899  -0.46834  -0.46760  -0.46735  -0.46643
 Alpha  occ. eigenvalues --   -0.45549  -0.45341  -0.44530  -0.44487  -0.44479
 Alpha  occ. eigenvalues --   -0.44442  -0.44135  -0.43932  -0.43920  -0.43207
 Alpha  occ. eigenvalues --   -0.42967  -0.42930  -0.42411  -0.41724  -0.39940
 Alpha  occ. eigenvalues --   -0.38737  -0.37177  -0.36948  -0.36900  -0.36879
 Alpha  occ. eigenvalues --   -0.36831  -0.36816  -0.36099  -0.36081  -0.35844
 Alpha  occ. eigenvalues --   -0.35819  -0.35262  -0.34462  -0.34407  -0.34303
 Alpha  occ. eigenvalues --   -0.32414  -0.32254  -0.30887  -0.28233  -0.28054
 Alpha  occ. eigenvalues --   -0.28041  -0.26548  -0.26307  -0.26131  -0.26061
 Alpha  occ. eigenvalues --   -0.25997  -0.25473  -0.25427  -0.25399  -0.25318
 Alpha  occ. eigenvalues --   -0.24524  -0.18588
 Alpha virt. eigenvalues --   -0.10566  -0.10473  -0.04267  -0.03465  -0.02927
 Alpha virt. eigenvalues --   -0.02380  -0.02364   0.02576   0.02758   0.02849
 Alpha virt. eigenvalues --    0.03450   0.04446   0.05035   0.05930   0.10396
 Alpha virt. eigenvalues --    0.10508   0.10619   0.11102   0.11168   0.11237
 Alpha virt. eigenvalues --    0.11333   0.11408   0.13356   0.14458   0.15090
 Alpha virt. eigenvalues --    0.15358   0.15373   0.16152   0.17626   0.17688
 Alpha virt. eigenvalues --    0.17819   0.17840   0.18288   0.18338   0.18370
 Alpha virt. eigenvalues --    0.18872   0.18983   0.19162   0.19460   0.20104
 Alpha virt. eigenvalues --    0.21583   0.21832   0.21913   0.22584   0.22666
 Alpha virt. eigenvalues --    0.24365   0.24595   0.24778   0.25251   0.25920
 Alpha virt. eigenvalues --    0.26044   0.26060   0.27004   0.27203   0.28301
 Alpha virt. eigenvalues --    0.28478   0.28493   0.29825   0.30027   0.30169
 Alpha virt. eigenvalues --    0.32317   0.32865   0.33446   0.33584   0.34285
 Alpha virt. eigenvalues --    0.34590   0.34709   0.35787   0.36681   0.37748
 Alpha virt. eigenvalues --    0.38798   0.39225   0.39252   0.39509   0.42391
 Alpha virt. eigenvalues --    0.42583   0.42869   0.42953   0.43398   0.43810
 Alpha virt. eigenvalues --    0.49538   0.49910   0.50709   0.51164   0.51194
 Alpha virt. eigenvalues --    0.51528   0.51971   0.52365   0.53772   0.53801
 Alpha virt. eigenvalues --    0.54104   0.54236   0.54373   0.54391   0.55214
 Alpha virt. eigenvalues --    0.55445   0.55762   0.55824   0.56191   0.56413
 Alpha virt. eigenvalues --    0.56959   0.57089   0.57498   0.57516   0.57810
 Alpha virt. eigenvalues --    0.57934   0.58323   0.58360   0.58416   0.58501
 Alpha virt. eigenvalues --    0.58529   0.58686   0.59036   0.59995   0.60669
 Alpha virt. eigenvalues --    0.60752   0.61026   0.61089   0.61139   0.61183
 Alpha virt. eigenvalues --    0.61191   0.61444   0.62011   0.62384   0.62469
 Alpha virt. eigenvalues --    0.62648   0.62813   0.62869   0.64089   0.64879
 Alpha virt. eigenvalues --    0.65362   0.65524   0.65567   0.65587   0.65700
 Alpha virt. eigenvalues --    0.65786   0.65952   0.66108   0.66326   0.67549
 Alpha virt. eigenvalues --    0.68804   0.69165   0.69209   0.69774   0.70756
 Alpha virt. eigenvalues --    0.74292   0.74635   0.74753   0.75371   0.75585
 Alpha virt. eigenvalues --    0.75917   0.77221   0.78971   0.79288   0.79456
 Alpha virt. eigenvalues --    0.79652   0.80065   0.80121   0.81774   0.82159
 Alpha virt. eigenvalues --    0.82482   0.82593   0.82635   0.83086   0.83341
 Alpha virt. eigenvalues --    0.83699   0.83963   0.84595   0.84711   0.85609
 Alpha virt. eigenvalues --    0.85831   0.86448   0.86522   0.86661   0.88207
 Alpha virt. eigenvalues --    0.88331   0.88360   0.88861   0.88908   0.89134
 Alpha virt. eigenvalues --    0.89449   0.90448   0.91208   0.91335   0.91548
 Alpha virt. eigenvalues --    0.92086   0.92918   0.93122   0.93371   0.93524
 Alpha virt. eigenvalues --    0.94533   0.94950   0.96348   0.96437   0.98934
 Alpha virt. eigenvalues --    0.98964   0.99718   0.99824   1.00140   1.00564
 Alpha virt. eigenvalues --    1.00843   1.01145   1.01252   1.03150   1.03195
 Alpha virt. eigenvalues --    1.03288   1.03588   1.05749   1.07620   1.07965
 Alpha virt. eigenvalues --    1.08128   1.11713   1.12101   1.12156   1.12556
 Alpha virt. eigenvalues --    1.12572   1.13269   1.14130   1.15313   1.15391
 Alpha virt. eigenvalues --    1.16742   1.18029   1.19219   1.19455   1.20872
 Alpha virt. eigenvalues --    1.21099   1.21359   1.21387   1.21803   1.23212
 Alpha virt. eigenvalues --    1.24408   1.24915   1.25107   1.25411   1.26583
 Alpha virt. eigenvalues --    1.26617   1.26848   1.26884   1.28319   1.28445
 Alpha virt. eigenvalues --    1.29401   1.29441   1.30081   1.30500   1.31255
 Alpha virt. eigenvalues --    1.31911   1.31918   1.32850   1.32959   1.34135
 Alpha virt. eigenvalues --    1.35241   1.35325   1.35390   1.35762   1.35846
 Alpha virt. eigenvalues --    1.36164   1.36261   1.37310   1.38834   1.39565
 Alpha virt. eigenvalues --    1.39587   1.39613   1.39651   1.39960   1.40023
 Alpha virt. eigenvalues --    1.40137   1.40854   1.41953   1.42644   1.42860
 Alpha virt. eigenvalues --    1.43045   1.43286   1.43346   1.46318   1.46523
 Alpha virt. eigenvalues --    1.46734   1.48172   1.49318   1.49359   1.49502
 Alpha virt. eigenvalues --    1.51883   1.55879   1.56221   1.56472   1.57934
 Alpha virt. eigenvalues --    1.58506   1.58694   1.58755   1.63522   1.66156
 Alpha virt. eigenvalues --    1.68523   1.70142   1.71047   1.73867   1.73904
 Alpha virt. eigenvalues --    1.74056   1.74095   1.74444   1.75404   1.75596
 Alpha virt. eigenvalues --    1.75911   1.77039   1.79225   1.80077   1.80274
 Alpha virt. eigenvalues --    1.81587   1.81801   1.81916   1.82141   1.82230
 Alpha virt. eigenvalues --    1.82559   1.83970   1.84488   1.84874   1.85019
 Alpha virt. eigenvalues --    1.85626   1.85722   1.85887   1.86106   1.86960
 Alpha virt. eigenvalues --    1.87093   1.88390   1.88481   1.88721   1.88846
 Alpha virt. eigenvalues --    1.89902   1.89980   1.90032   1.90971   1.93029
 Alpha virt. eigenvalues --    1.93708   1.94768   1.94967   1.95133   1.95783
 Alpha virt. eigenvalues --    1.97205   1.97406   1.97732   1.97757   1.97793
 Alpha virt. eigenvalues --    1.97855   1.97944   1.98004   1.98028   2.00093
 Alpha virt. eigenvalues --    2.01165   2.01430   2.02246   2.03120   2.03293
 Alpha virt. eigenvalues --    2.03442   2.03871   2.06243   2.06333   2.07374
 Alpha virt. eigenvalues --    2.08068   2.08946   2.09355   2.09415   2.10204
 Alpha virt. eigenvalues --    2.11703   2.11772   2.11899   2.12237   2.12596
 Alpha virt. eigenvalues --    2.16966   2.17301   2.19179   2.19391   2.19522
 Alpha virt. eigenvalues --    2.19780   2.20426   2.20786   2.21477   2.22008
 Alpha virt. eigenvalues --    2.23549   2.23803   2.23956   2.25428   2.25851
 Alpha virt. eigenvalues --    2.26456   2.26928   2.27915   2.28298   2.28432
 Alpha virt. eigenvalues --    2.28582   2.32480   2.33197   2.34739   2.34874
 Alpha virt. eigenvalues --    2.36241   2.36260   2.36329   2.37022   2.37049
 Alpha virt. eigenvalues --    2.37487   2.37529   2.37696   2.38147   2.38485
 Alpha virt. eigenvalues --    2.38701   2.38719   2.39573   2.39693   2.40131
 Alpha virt. eigenvalues --    2.40227   2.40812   2.40971   2.41147   2.41367
 Alpha virt. eigenvalues --    2.41614   2.43343   2.44531   2.44681   2.45062
 Alpha virt. eigenvalues --    2.45724   2.45788   2.46432   2.46778   2.46913
 Alpha virt. eigenvalues --    2.47528   2.47633   2.48685   2.48685   2.48996
 Alpha virt. eigenvalues --    2.51535   2.51538   2.51598   2.51811   2.53193
 Alpha virt. eigenvalues --    2.53894   2.54003   2.54535   2.54765   2.55581
 Alpha virt. eigenvalues --    2.57367   2.57578   2.58646   2.58721   2.59148
 Alpha virt. eigenvalues --    2.60667   2.60709   2.60834   2.61716   2.62366
 Alpha virt. eigenvalues --    2.63239   2.64367   2.64527   2.66271   2.66600
 Alpha virt. eigenvalues --    2.67074   2.67138   2.67284   2.70389   2.70474
 Alpha virt. eigenvalues --    2.71645   2.71819   2.71964   2.72935   2.74334
 Alpha virt. eigenvalues --    2.75014   2.75209   2.75366   2.75381   2.75637
 Alpha virt. eigenvalues --    2.75645   2.75712   2.76228   2.76647   2.77515
 Alpha virt. eigenvalues --    2.79722   2.80123   2.80184   2.85547   2.85981
 Alpha virt. eigenvalues --    2.86539   2.88657   2.88995   2.89130   2.90484
 Alpha virt. eigenvalues --    2.92577   2.92749   2.96726   2.96840   2.97122
 Alpha virt. eigenvalues --    2.98198   2.98385   3.00210   3.00809   3.02287
 Alpha virt. eigenvalues --    3.02321   3.02670   3.02986   3.13342   3.17814
 Alpha virt. eigenvalues --    3.17944   3.21939   3.21943   3.22330   3.23081
 Alpha virt. eigenvalues --    3.25408   3.25696   3.27303   3.27414   3.27581
 Alpha virt. eigenvalues --    3.27609   3.28618   3.29802   3.30169   3.31197
 Alpha virt. eigenvalues --    3.32510   3.32668   3.37163   3.38052   3.38611
 Alpha virt. eigenvalues --    3.38829   3.46774   3.48583   3.49149   3.49253
 Alpha virt. eigenvalues --    3.52063   3.52777   3.52783   3.52822   3.88406
 Alpha virt. eigenvalues --    3.88707   3.88834   3.89136   4.09346   4.09670
 Alpha virt. eigenvalues --    4.11466   4.11980   4.13263   4.13270   4.13328
 Alpha virt. eigenvalues --    4.13566   4.13852   4.14276   4.14366   4.14472
 Alpha virt. eigenvalues --    4.20336   4.21137   4.21294   4.23074   4.24257
 Alpha virt. eigenvalues --    4.27570   4.33977   4.34049   4.34399   4.34758
 Alpha virt. eigenvalues --    4.40559   4.40596   4.48539   4.50463   4.50913
 Alpha virt. eigenvalues --    4.50993   4.51193   4.54630   4.56257   4.57087
 Alpha virt. eigenvalues --    4.65995   4.66684   4.67378   4.69556   4.86598
 Alpha virt. eigenvalues --    4.89466   4.89503   4.93154  47.47915
          Condensed to atoms (all electrons):
 Mulliken charges:
               1
     1  Zn   1.019728
     2  N   -0.575818
     3  N   -0.753336
     4  N   -0.571488
     5  N   -0.752889
     6  C    0.516363
     7  C    0.015176
     8  C   -0.134361
     9  C   -0.126642
    10  C   -0.126143
    11  C   -0.140612
    12  C    0.019442
    13  C    0.509637
    14  C    0.505911
    15  C    0.021316
    16  C   -0.140755
    17  C   -0.124212
    18  C   -0.126845
    19  C   -0.135989
    20  C    0.014069
    21  C    0.518179
    22  N   -0.575818
    23  N   -0.753336
    24  N   -0.571488
    25  N   -0.752889
    26  C    0.516363
    27  C    0.015176
    28  C   -0.134361
    29  C   -0.126642
    30  C   -0.126143
    31  C   -0.140612
    32  C    0.019442
    33  C    0.509637
    34  C    0.505911
    35  C    0.021316
    36  C   -0.140755
    37  C   -0.124212
    38  C   -0.126845
    39  C   -0.135989
    40  C    0.014069
    41  C    0.518179
    42  Bq   0.000000
    43  H    0.143577
    44  H    0.126894
    45  H    0.125945
    46  H    0.143482
    47  H    0.143255
    48  H    0.126526
    49  H    0.126608
    50  H    0.142846
    51  H    0.143577
    52  H    0.126894
    53  H    0.125945
    54  H    0.143482
    55  H    0.143255
    56  H    0.126526
    57  H    0.126608
    58  H    0.142846
 Sum of Mulliken charges =  -0.00000
 Mulliken charges with hydrogens summed into heavy atoms:
               1
     1  Zn   1.019728
     2  N   -0.575818
     3  N   -0.753336
     4  N   -0.571488
     5  N   -0.752889
     6  C    0.516363
     7  C    0.015176
     8  C    0.009121
     9  C   -0.000697
    10  C    0.000751
    11  C    0.002965
    12  C    0.019442
    13  C    0.509637
    14  C    0.505911
    15  C    0.021316
    16  C    0.002091
    17  C    0.002396
    18  C   -0.000319
    19  C    0.007266
    20  C    0.014069
    21  C    0.518179
    22  N   -0.575818
    23  N   -0.753336
    24  N   -0.571488
    25  N   -0.752889
    26  C    0.516363
    27  C    0.015176
    28  C    0.009121
    29  C   -0.000697
    30  C    0.000751
    31  C    0.002965
    32  C    0.019442
    33  C    0.509637
    34  C    0.505911
    35  C    0.021316
    36  C    0.002091
    37  C    0.002396
    38  C   -0.000319
    39  C    0.007266
    40  C    0.014069
    41  C    0.518179
    42  Bq   0.000000
 Electronic spatial extent (au):  <R**2>=          21930.8403
 Charge=             -0.0000 electrons
 Dipole moment (field-independent basis, Debye):
    X=             -0.0000    Y=             -0.0000    Z=              0.0000  Tot=              0.0000
 Quadrupole moment (field-independent basis, Debye-Ang):
   XX=           -218.8012   YY=           -220.9572   ZZ=           -204.0215
   XY=             18.9912   XZ=              5.7577   YZ=             -6.3865
 Traceless Quadrupole moment (field-independent basis, Debye-Ang):
   XX=             -4.2079   YY=             -6.3639   ZZ=             10.5718
   XY=             18.9912   XZ=              5.7577   YZ=             -6.3865
 Octapole moment (field-independent basis, Debye-Ang**2):
  XXX=             -0.0000  YYY=             -0.0000  ZZZ=              0.0000  XYY=             -0.0000
  XXY=             -0.0000  XXZ=             -0.0000  XZZ=             -0.0000  YZZ=             -0.0000
  YYZ=              0.0000  XYZ=              0.0000
 Hexadecapole moment (field-independent basis, Debye-Ang**3):
 XXXX=          -7764.4828 YYYY=          -7904.5679 ZZZZ=         -12470.7407 XXXY=          -2956.7197
 XXXZ=           -871.6639 YYYX=          -3046.8824 YYYZ=           1080.0090 ZZZX=          -1012.2850
 ZZZY=            665.9580 XXYY=          -2148.3894 XXZZ=          -3401.3150 YYZZ=          -3333.4945
 XXYZ=            616.5321 YYXZ=           -437.0280 ZZXY=           -775.5852
 N-N= 5.059501499357D+03 E-N=-1.824712437185D+04  KE= 3.428064272050D+03
 No NMR shielding tensors so no spin-rotation constants.
 Leave Link  601 at Tue Jun 17 03:03:10 2025, MaxMem=  1073741824 cpu:         0.8
 (Enter /opt/g09/l701.exe)
 Compute integral first derivatives.
 ... and contract with generalized density number  0.
 Leave Link  701 at Tue Jun 17 03:03:11 2025, MaxMem=  1073741824 cpu:         0.8
 (Enter /opt/g09/l702.exe)
 L702 exits ... SP integral derivatives will be done elsewhere.
 Leave Link  702 at Tue Jun 17 03:03:11 2025, MaxMem=  1073741824 cpu:         0.1
 (Enter /opt/g09/l703.exe)
 Compute integral first derivatives, UseDBF=F ICtDFT=           0.
 Integral derivatives from FoFJK, PRISM(SPDF).
 Calling FoFJK, ICntrl=      2127 FMM=F ISym2X=0 I1Cent= 0 IOpClX= 0 NMat=1 NMatS=1 NMatT=0.
 FoFJK:  IHMeth= 1 ICntrl=    2127 DoSepK=F KAlg= 0 I1Cent=   0 FoldK=F
 IRaf=         0 NMat=   1 IRICut=       1 DoRegI=T DoRafI=F ISym2E= 0.
 FoFCou: FMM=F IPFlag=           0 FMFlag=      100000 FMFlg1=         800
         NFxFlg=           0 DoJE=F BraDBF=F KetDBF=F FulRan=T
         wScrn=  0.000000 ICntrl=    2127 IOpCl=  0 I1Cent=           0 NGrid=           0
         NMat0=    1 NMatS0=      1 NMatT0=    0 NMatD0=    1 NMtDS0=    0 NMtDT0=    0
 Symmetry not used in FoFCou.
 Leave Link  703 at Tue Jun 17 03:06:20 2025, MaxMem=  1073741824 cpu:       377.6
 (Enter /opt/g09/l716.exe)
 Dipole        =-2.36255460D-13-1.32116540D-12 2.24709140D-12
 -------------------------------------------------------------------
 Center     Atomic                   Forces (Hartrees/Bohr)
 Number     Number              X              Y              Z
 -------------------------------------------------------------------
      1       30          -0.000000000   -0.000000000   -0.000000000
      2        7          -0.000000000   -0.000000000   -0.000000000
      3        7          -0.000000000   -0.000000000   -0.000000000
      4        7          -0.000000000   -0.000000000   -0.000000000
      5        7          -0.000000000   -0.000000000   -0.000000000
      6        6          -0.000000000   -0.000000000   -0.000000000
      7        6          -0.000000000   -0.000000000   -0.000000000
      8        6          -0.000000000   -0.000000000   -0.000000000
      9        6          -0.000000000   -0.000000000   -0.000000000
     10        6          -0.000000000   -0.000000000   -0.000000000
     11        6          -0.000000000   -0.000000000   -0.000000000
     12        6          -0.000000000   -0.000000000   -0.000000000
     13        6          -0.000000000   -0.000000000   -0.000000000
     14        6          -0.000000000   -0.000000000   -0.000000000
     15        6          -0.000000000   -0.000000000   -0.000000000
     16        6          -0.000000000   -0.000000000   -0.000000000
     17        6          -0.000000000   -0.000000000   -0.000000000
     18        6          -0.000000000   -0.000000000   -0.000000000
     19        6          -0.000000000   -0.000000000   -0.000000000
     20        6          -0.000000000   -0.000000000   -0.000000000
     21        6          -0.000000000   -0.000000000   -0.000000000
     22        7          -0.000000000   -0.000000000   -0.000000000
     23        7          -0.000000000   -0.000000000   -0.000000000
     24        7          -0.000000000   -0.000000000   -0.000000000
     25        7          -0.000000000   -0.000000000   -0.000000000
     26        6          -0.000000000   -0.000000000   -0.000000000
     27        6          -0.000000000   -0.000000000   -0.000000000
     28        6          -0.000000000   -0.000000000   -0.000000000
     29        6          -0.000000000   -0.000000000   -0.000000000
     30        6          -0.000000000   -0.000000000   -0.000000000
     31        6          -0.000000000   -0.000000000   -0.000000000
     32        6          -0.000000000   -0.000000000   -0.000000000
     33        6          -0.000000000   -0.000000000   -0.000000000
     34        6          -0.000000000   -0.000000000   -0.000000000
     35        6          -0.000000000   -0.000000000   -0.000000000
     36        6          -0.000000000   -0.000000000   -0.000000000
     37        6          -0.000000000   -0.000000000   -0.000000000
     38        6          -0.000000000   -0.000000000   -0.000000000
     39        6          -0.000000000   -0.000000000   -0.000000000
     40        6          -0.000000000   -0.000000000   -0.000000000
     41        6          -0.000000000   -0.000000000   -0.000000000
     42        0          -0.000000000   -0.000000000   -0.000000000
     43        1          -0.007461992   -0.006517863   -0.004463916
     44        1          -0.001417580    0.001818131   -0.011601199
     45        1           0.006125087    0.008153707   -0.006505291
     46        1           0.007237079    0.005234310    0.006122819
     47        1           0.001006955    0.004538826   -0.009871621
     48        1           0.008475536    0.008403372   -0.000133133
     49        1           0.006732127    0.002720952    0.009513203
     50        1          -0.002227277   -0.006069677    0.008976546
     51        1           0.007461992    0.006517863    0.004463916
     52        1           0.001417580   -0.001818131    0.011601199
     53        1          -0.006125087   -0.008153707    0.006505291
     54        1          -0.007237079   -0.005234310   -0.006122819
     55        1          -0.001006955   -0.004538826    0.009871621
     56        1          -0.008475536   -0.008403372    0.000133133
     57        1          -0.006732127   -0.002720952   -0.009513203
     58        1           0.002227277    0.006069677   -0.008976546
 -------------------------------------------------------------------
 Cartesian Forces:  Max     0.011601199 RMS     0.003471912
 Leave Link  716 at Tue Jun 17 03:06:20 2025, MaxMem=  1073741824 cpu:         0.1
 (Enter /opt/g09/l103.exe)

 GradGradGradGradGradGradGradGradGradGradGradGradGradGradGradGradGradGrad
 Berny optimization.
 FormGI is forming the generalized inverse of G from B-inverse, IUseBI=4.
 Internal  Forces:  Max     0.012087297 RMS     0.004333366
 Search for a local minimum.
 Step number   1 out of a maximum of  236
 All quantities printed in internal units (Hartrees-Bohrs-Radians)
 RMS Force = .45906D-02 SwitMx=.10000D-02 MixMth= 1
 Mixed Optimization -- RFO/linear search
 Second derivative matrix not updated -- first step.
 ITU=  0
     Eigenvalues ---    0.02131   0.02131   0.02160   0.02160   0.02175
     Eigenvalues ---    0.02175   0.02179   0.02179   0.02185   0.02185
     Eigenvalues ---    0.02201   0.02201   0.02207   0.02207   0.02216
     Eigenvalues ---    0.02216   0.16000   0.16000   0.16000   0.16000
     Eigenvalues ---    0.16000   0.16000   0.16000   0.16000   0.16000
     Eigenvalues ---    0.16000   0.16000   0.16000   0.16000   0.16000
     Eigenvalues ---    0.16000   0.16000   0.37230   0.37230   0.37230
     Eigenvalues ---    0.37230   0.37230   0.37230   0.37230   0.37230
     Eigenvalues ---    0.37230   0.37230   0.37230   0.37230   0.37230
     Eigenvalues ---    0.37230   0.37230   0.372301000.000001000.00000
     Eigenvalues --- 1000.000001000.000001000.000001000.000001000.00000
     Eigenvalues --- 1000.000001000.000001000.000001000.000001000.00000
     Eigenvalues --- 1000.000001000.000001000.000001000.000001000.00000
     Eigenvalues --- 1000.000001000.000001000.000001000.000001000.00000
     Eigenvalues --- 1000.000001000.000001000.000001000.000001000.00000
     Eigenvalues --- 1000.000001000.000001000.000001000.000001000.00000
     Eigenvalues --- 1000.000001000.000001000.000001000.000001000.00000
     Eigenvalues --- 1000.000001000.000001000.000001000.000001000.00000
     Eigenvalues --- 1000.000001000.000001000.000001000.000001000.00000
     Eigenvalues --- 1000.000001000.000001000.000001000.000001000.00000
     Eigenvalues --- 1000.000001000.000001000.000001000.000001000.00000
     Eigenvalues --- 1000.000001000.000001000.000001000.000001000.00000
     Eigenvalues --- 1000.000001000.000001000.000001000.000001000.00000
     Eigenvalues --- 1000.000001000.000001000.000001000.000001000.00000
     Eigenvalues --- 1000.000001000.000001000.000001000.000001000.00000
     Eigenvalues --- 1000.000001000.000001000.000001000.000001000.00000
     Eigenvalues --- 1000.000001000.000001000.000001000.000001000.00000
     Eigenvalues --- 1000.000001000.000001000.000001000.000001000.00000
     Eigenvalues --- 1000.000001000.000001000.000001000.000001000.00000
     Eigenvalues --- 1000.000001000.000001000.000001000.000001000.00000
     Eigenvalues --- 1000.000001000.000001000.000001000.000001000.00000
     Eigenvalues --- 1000.000001000.000001000.000001000.000001000.00000
     Eigenvalues --- 1000.000001000.000001000.000001000.000001000.00000
     Eigenvalues --- 1000.000001000.000001000.000001000.000001000.00000
     Eigenvalues --- 1000.000001000.000001000.000001000.000001000.00000
     Eigenvalues --- 1000.000001000.000001000.000001000.000001000.00000
     Eigenvalues --- 1000.000001000.000001000.000001000.000001000.00000
     Eigenvalues --- 1000.000001000.000001000.000001000.000001000.00000
     Eigenvalues --- 1000.000001000.000001000.000001000.000001000.00000
     Eigenvalues --- 1000.000001000.000001000.000001000.000001000.00000
     Eigenvalues --- 1000.000001000.000001000.000001000.000001000.00000
     Eigenvalues --- 1000.000001000.000001000.000001000.000001000.00000
     Eigenvalues --- 1000.000001000.000001000.000001000.000001000.00000
     Eigenvalues --- 1000.000001000.000001000.000001000.000001000.00000
     Eigenvalues --- 1000.000001000.000001000.000001000.000001000.00000
     Eigenvalues --- 1000.00000
 RFO step:  Lambda=-5.66104534D-03 EMin= 2.13103021D-02
 Linear search not attempted -- first point.
 Iteration  1 RMS(Cart)=  0.00857113 RMS(Int)=  0.00003772
 Iteration  2 RMS(Cart)=  0.00004399 RMS(Int)=  0.00000740
 Iteration  3 RMS(Cart)=  0.00000000 RMS(Int)=  0.00000740
 ITry= 1 IFail=0 DXMaxC= 3.40D-02 DCOld= 1.00D+10 DXMaxT= 3.00D-01 DXLimC= 3.00D+00 Rises=F
 Variable       Old X    -DE/DX   Delta X   Delta X   Delta X     New X
                                 (Linear)    (Quad)   (Total)
    X1        0.00000  -0.00000   0.00000   0.00000   0.00000   0.00000
    Y1        0.00000  -0.00000   0.00000   0.00000   0.00000   0.00000
    Z1        0.00000  -0.00000   0.00000   0.00000   0.00000   0.00000
    X2       -3.85068  -0.00000   0.00000   0.00000   0.00000  -3.85068
    Y2       -4.74761  -0.00000   0.00000   0.00000   0.00000  -4.74761
    Z2        1.69697  -0.00000   0.00000   0.00000   0.00000   1.69697
    X3       -0.61965  -0.00000   0.00000   0.00000   0.00000  -0.61965
    Y3       -1.85924  -0.00000   0.00000   0.00000   0.00000  -1.85924
    Z3        3.18774  -0.00000   0.00000   0.00000   0.00000   3.18774
    X4        2.33586  -0.00000   0.00000   0.00000   0.00000   2.33586
    Y4        0.24582  -0.00000   0.00000   0.00000   0.00000   0.24582
    Z4        5.98205  -0.00000   0.00000   0.00000   0.00000   5.98205
    X5        2.56690  -0.00000   0.00000   0.00000   0.00000   2.56690
    Y5        2.05644  -0.00000   0.00000   0.00000   0.00000   2.05644
    Z5        1.77755  -0.00000   0.00000   0.00000   0.00000   1.77755
    X6       -2.34624  -0.00003   0.00000   0.00000   0.00000  -2.34624
    Y6       -3.75791   0.00003   0.00000   0.00000   0.00000  -3.75791
    Z6        3.46030   0.00001   0.00000   0.00000   0.00000   3.46030
    X7       -2.37110  -0.00003   0.00000   0.00000   0.00000  -2.37110
    Y7       -4.57242   0.00000   0.00000   0.00000   0.00000  -4.57242
    Z7        6.07686  -0.00003   0.00000   0.00000   0.00000   6.07686
    X8       -3.79603  -0.00688   0.00000   0.00000   0.00000  -3.79603
    Y8       -6.39772  -0.00484   0.00000   0.00000   0.00000  -6.39772
    Z8        7.32825  -0.00610   0.00000   0.00000   0.00000   7.32825
[...]
     51          1           0        0.653808   -1.192583    5.774273
     52          1           0       -0.704287   -2.911033    6.987890
     53          1           0       -2.359185   -4.275636    5.794543
     54          1           0       -2.740488   -3.983328    3.344780
     55          1           0       -4.162164   -4.138271   -0.309504
     56          1           0       -5.529133   -4.630523   -2.343616
     57          1           0       -5.148694   -3.408174   -4.437797
     58          1           0       -3.391927   -1.649615   -4.594762
 ---------------------------------------------------------------------
 Rotational constants (GHZ):      0.0900236      0.0891094      0.0447954
 Leave Link  202 at Tue Jun 17 03:26:37 2025, MaxMem=  1073741824 cpu:         0.0
 (Enter /opt/g09/l601.exe)
 Copying SCF densities to generalized density rwf, IOpCl= 0 IROHF=0.

 **********************************************************************

            Population analysis using the SCF density.

 **********************************************************************

 Alpha  occ. eigenvalues -- -347.22015 -42.21268 -37.19755 -37.19119 -37.19116
 Alpha  occ. eigenvalues --  -14.34576 -14.34576 -14.34543 -14.34543 -14.33468
 Alpha  occ. eigenvalues --  -14.33468 -14.33375 -14.33375 -10.25623 -10.25623
 Alpha  occ. eigenvalues --  -10.25566 -10.25566 -10.25453 -10.25453 -10.25438
 Alpha  occ. eigenvalues --  -10.25437 -10.19011 -10.19011 -10.18980 -10.18980
 Alpha  occ. eigenvalues --  -10.18917 -10.18917 -10.18909 -10.18909 -10.18896
 Alpha  occ. eigenvalues --  -10.18896 -10.18862 -10.18862 -10.18828 -10.18828
 Alpha  occ. eigenvalues --  -10.18764 -10.18764 -10.18746 -10.18746 -10.18718
 Alpha  occ. eigenvalues --  -10.18718 -10.18708 -10.18708 -10.18707 -10.18707
 Alpha  occ. eigenvalues --   -4.80510  -3.20165  -3.19083  -3.19060  -1.01811
 Alpha  occ. eigenvalues --   -1.00400  -1.00319  -0.97606  -0.95189  -0.91257
 Alpha  occ. eigenvalues --   -0.90955  -0.87952  -0.86408  -0.86366  -0.86338
 Alpha  occ. eigenvalues --   -0.86296  -0.78092  -0.77061  -0.76896  -0.76841
 Alpha  occ. eigenvalues --   -0.76453  -0.76386  -0.76366  -0.76009  -0.72601
 Alpha  occ. eigenvalues --   -0.69962  -0.69929  -0.64589  -0.64338  -0.63678
 Alpha  occ. eigenvalues --   -0.63650  -0.62954  -0.62556  -0.60035  -0.59977
 Alpha  occ. eigenvalues --   -0.59884  -0.58994  -0.56147  -0.55493  -0.55378
 Alpha  occ. eigenvalues --   -0.53880  -0.53792  -0.53751  -0.50505  -0.50388
 Alpha  occ. eigenvalues --   -0.49529  -0.49419  -0.48446  -0.48410  -0.46959
 Alpha  occ. eigenvalues --   -0.46915  -0.46831  -0.46792  -0.46768  -0.46404
 Alpha  occ. eigenvalues --   -0.45590  -0.45384  -0.44454  -0.44349  -0.44285
 Alpha  occ. eigenvalues --   -0.44247  -0.44081  -0.43964  -0.43952  -0.43074
 Alpha  occ. eigenvalues --   -0.42902  -0.42859  -0.42443  -0.41652  -0.39962
 Alpha  occ. eigenvalues --   -0.38770  -0.37075  -0.36936  -0.36866  -0.36859
 Alpha  occ. eigenvalues --   -0.36851  -0.36783  -0.36033  -0.36029  -0.35798
 Alpha  occ. eigenvalues --   -0.35691  -0.35301  -0.34368  -0.34367  -0.34268
 Alpha  occ. eigenvalues --   -0.32447  -0.32287  -0.30928  -0.28270  -0.28090
 Alpha  occ. eigenvalues --   -0.28073  -0.26581  -0.26337  -0.26160  -0.26090
 Alpha  occ. eigenvalues --   -0.26028  -0.25507  -0.25461  -0.25433  -0.25351
 Alpha  occ. eigenvalues --   -0.24559  -0.18617
 Alpha virt. eigenvalues --   -0.10596  -0.10503  -0.04294  -0.03488  -0.02947
 Alpha virt. eigenvalues --   -0.02400  -0.02383   0.02554   0.02736   0.02828
 Alpha virt. eigenvalues --    0.03425   0.04415   0.05009   0.05907   0.10117
 Alpha virt. eigenvalues --    0.10139   0.10251   0.10839   0.10943   0.11038
 Alpha virt. eigenvalues --    0.11118   0.11133   0.13326   0.14018   0.14672
 Alpha virt. eigenvalues --    0.14954   0.15179   0.15790   0.17315   0.17388
 Alpha virt. eigenvalues --    0.17475   0.17687   0.18271   0.18317   0.18352
 Alpha virt. eigenvalues --    0.18611   0.18649   0.18840   0.19103   0.19624
 Alpha virt. eigenvalues --    0.21442   0.21748   0.21791   0.22560   0.22597
 Alpha virt. eigenvalues --    0.24337   0.24556   0.24743   0.25244   0.25848
 Alpha virt. eigenvalues --    0.25947   0.25990   0.26908   0.27141   0.28269
 Alpha virt. eigenvalues --    0.28384   0.28396   0.29765   0.29979   0.30058
 Alpha virt. eigenvalues --    0.32238   0.32792   0.33401   0.33541   0.34291
 Alpha virt. eigenvalues --    0.34579   0.34693   0.35749   0.36682   0.37765
 Alpha virt. eigenvalues --    0.38794   0.39183   0.39252   0.39499   0.42334
 Alpha virt. eigenvalues --    0.42531   0.42825   0.42926   0.43366   0.43782
 Alpha virt. eigenvalues --    0.49541   0.49916   0.50668   0.51128   0.51156
 Alpha virt. eigenvalues --    0.51460   0.51928   0.52321   0.53756   0.53768
 Alpha virt. eigenvalues --    0.54004   0.54130   0.54331   0.54349   0.55145
 Alpha virt. eigenvalues --    0.55413   0.55677   0.55751   0.56076   0.56365
 Alpha virt. eigenvalues --    0.56797   0.56979   0.57411   0.57440   0.57758
 Alpha virt. eigenvalues --    0.57766   0.58286   0.58292   0.58332   0.58439
 Alpha virt. eigenvalues --    0.58502   0.58644   0.58979   0.59942   0.60538
 Alpha virt. eigenvalues --    0.60615   0.60928   0.61071   0.61111   0.61151
 Alpha virt. eigenvalues --    0.61181   0.61325   0.61957   0.62346   0.62440
 Alpha virt. eigenvalues --    0.62633   0.62759   0.62812   0.64055   0.64865
 Alpha virt. eigenvalues --    0.65344   0.65464   0.65508   0.65528   0.65643
 Alpha virt. eigenvalues --    0.65732   0.65914   0.66037   0.66269   0.67527
 Alpha virt. eigenvalues --    0.68741   0.69107   0.69152   0.69733   0.70726
 Alpha virt. eigenvalues --    0.74257   0.74561   0.74679   0.75307   0.75547
 Alpha virt. eigenvalues --    0.75855   0.77148   0.78682   0.78898   0.78939
 Alpha virt. eigenvalues --    0.79261   0.79345   0.79370   0.81196   0.81813
 Alpha virt. eigenvalues --    0.81881   0.81917   0.82124   0.82969   0.83209
 Alpha virt. eigenvalues --    0.83291   0.83317   0.84023   0.84103   0.85198
 Alpha virt. eigenvalues --    0.85810   0.86260   0.86356   0.86456   0.87709
 Alpha virt. eigenvalues --    0.87729   0.87867   0.88743   0.88779   0.89087
 Alpha virt. eigenvalues --    0.89521   0.90291   0.91018   0.91173   0.91515
 Alpha virt. eigenvalues --    0.92022   0.92858   0.93020   0.93248   0.93463
 Alpha virt. eigenvalues --    0.94442   0.94900   0.96293   0.96376   0.98901
 Alpha virt. eigenvalues --    0.98908   0.99619   0.99704   0.99936   1.00394
 Alpha virt. eigenvalues --    1.00829   1.01033   1.01094   1.03054   1.03097
 Alpha virt. eigenvalues --    1.03227   1.03500   1.05694   1.07584   1.08042
 Alpha virt. eigenvalues --    1.08110   1.11772   1.12042   1.12154   1.12548
 Alpha virt. eigenvalues --    1.12620   1.13354   1.14054   1.15276   1.15329
 Alpha virt. eigenvalues --    1.16667   1.17908   1.19196   1.19521   1.20972
 Alpha virt. eigenvalues --    1.21066   1.21318   1.21344   1.21873   1.23143
 Alpha virt. eigenvalues --    1.24296   1.24853   1.25012   1.25366   1.26520
 Alpha virt. eigenvalues --    1.26567   1.26815   1.26893   1.28224   1.28316
 Alpha virt. eigenvalues --    1.29278   1.29400   1.30114   1.30535   1.31233
 Alpha virt. eigenvalues --    1.31785   1.31906   1.32830   1.32970   1.34193
 Alpha virt. eigenvalues --    1.35107   1.35255   1.35295   1.35775   1.35838
 Alpha virt. eigenvalues --    1.36172   1.36268   1.37278   1.38801   1.39572
 Alpha virt. eigenvalues --    1.39583   1.39626   1.39644   1.40004   1.40087
 Alpha virt. eigenvalues --    1.40182   1.40874   1.41264   1.42329   1.42497
 Alpha virt. eigenvalues --    1.42501   1.42775   1.42969   1.46295   1.46497
 Alpha virt. eigenvalues --    1.46690   1.48147   1.49123   1.49266   1.49281
 Alpha virt. eigenvalues --    1.51862   1.55672   1.56129   1.56359   1.57873
 Alpha virt. eigenvalues --    1.58523   1.58700   1.58804   1.63552   1.65944
 Alpha virt. eigenvalues --    1.68468   1.70095   1.70995   1.73679   1.73732
 Alpha virt. eigenvalues --    1.73899   1.74052   1.74491   1.75458   1.75556
 Alpha virt. eigenvalues --    1.75885   1.77104   1.79167   1.79892   1.80137
 Alpha virt. eigenvalues --    1.80854   1.81017   1.81493   1.81687   1.82105
 Alpha virt. eigenvalues --    1.82509   1.83822   1.84198   1.84248   1.84455
 Alpha virt. eigenvalues --    1.85636   1.85714   1.85802   1.85960   1.86604
 Alpha virt. eigenvalues --    1.87133   1.87177   1.87294   1.87562   1.87808
 Alpha virt. eigenvalues --    1.88705   1.88805   1.89060   1.90804   1.92741
 Alpha virt. eigenvalues --    1.93503   1.94760   1.94893   1.94985   1.95739
 Alpha virt. eigenvalues --    1.97112   1.97355   1.97704   1.97760   1.97883
 Alpha virt. eigenvalues --    1.98009   1.98027   1.98142   1.98150   1.99808
 Alpha virt. eigenvalues --    2.01073   2.01316   2.02069   2.02977   2.03148
 Alpha virt. eigenvalues --    2.03179   2.03743   2.06252   2.06338   2.07352
 Alpha virt. eigenvalues --    2.08019   2.09018   2.09443   2.09483   2.09999
 Alpha virt. eigenvalues --    2.11438   2.11479   2.11874   2.11943   2.12430
 Alpha virt. eigenvalues --    2.16854   2.17198   2.19146   2.19339   2.19456
 Alpha virt. eigenvalues --    2.19490   2.20183   2.20494   2.21399   2.21576
 Alpha virt. eigenvalues --    2.23470   2.23719   2.23809   2.25176   2.25631
 Alpha virt. eigenvalues --    2.26170   2.26869   2.27670   2.28190   2.28421
 Alpha virt. eigenvalues --    2.28487   2.32395   2.32633   2.33935   2.34108
 Alpha virt. eigenvalues --    2.35528   2.35723   2.35974   2.36109   2.36214
 Alpha virt. eigenvalues --    2.36491   2.36540   2.37140   2.37244   2.37685
 Alpha virt. eigenvalues --    2.37814   2.38063   2.38847   2.39091   2.39208
 Alpha virt. eigenvalues --    2.39280   2.40190   2.40495   2.40649   2.40739
 Alpha virt. eigenvalues --    2.41671   2.42519   2.43568   2.43695   2.44353
 Alpha virt. eigenvalues --    2.45552   2.45745   2.45911   2.46213   2.46343
 Alpha virt. eigenvalues --    2.46344   2.47458   2.47774   2.48242   2.48629
 Alpha virt. eigenvalues --    2.50627   2.51757   2.51804   2.51932   2.53083
 Alpha virt. eigenvalues --    2.53141   2.53315   2.54313   2.54565   2.55003
 Alpha virt. eigenvalues --    2.56924   2.57298   2.57324   2.57361   2.57589
 Alpha virt. eigenvalues --    2.60453   2.60484   2.60587   2.61383   2.61425
 Alpha virt. eigenvalues --    2.62704   2.64049   2.64221   2.66201   2.66460
 Alpha virt. eigenvalues --    2.66633   2.66678   2.66878   2.70151   2.70284
 Alpha virt. eigenvalues --    2.70975   2.71402   2.71823   2.72537   2.73860
 Alpha virt. eigenvalues --    2.74018   2.74095   2.74163   2.74594   2.74685
 Alpha virt. eigenvalues --    2.74865   2.75159   2.75483   2.76560   2.77281
 Alpha virt. eigenvalues --    2.79504   2.79787   2.79956   2.84932   2.85307
 Alpha virt. eigenvalues --    2.85683   2.87893   2.88146   2.88616   2.90061
 Alpha virt. eigenvalues --    2.92171   2.92370   2.95870   2.96037   2.96039
 Alpha virt. eigenvalues --    2.97283   2.97489   2.99398   3.00086   3.01393
 Alpha virt. eigenvalues --    3.01728   3.01776   3.02433   3.12168   3.17103
 Alpha virt. eigenvalues --    3.17237   3.21018   3.21213   3.21513   3.21840
 Alpha virt. eigenvalues --    3.23488   3.23516   3.23611   3.23718   3.24603
 Alpha virt. eigenvalues --    3.24943   3.26664   3.27507   3.29428   3.30346
 Alpha virt. eigenvalues --    3.30537   3.30676   3.33794   3.35121   3.35885
 Alpha virt. eigenvalues --    3.36078   3.45993   3.47218   3.47854   3.48333
 Alpha virt. eigenvalues --    3.49059   3.49995   3.50586   3.50668   3.85973
 Alpha virt. eigenvalues --    3.86294   3.86407   3.86734   4.09321   4.09636
 Alpha virt. eigenvalues --    4.11449   4.11964   4.13331   4.13382   4.13383
 Alpha virt. eigenvalues --    4.13690   4.13912   4.14269   4.14432   4.14536
 Alpha virt. eigenvalues --    4.20326   4.21213   4.21368   4.23114   4.24319
 Alpha virt. eigenvalues --    4.27479   4.33940   4.33969   4.34319   4.34755
 Alpha virt. eigenvalues --    4.40482   4.40515   4.48400   4.50292   4.50780
 Alpha virt. eigenvalues --    4.50823   4.51068   4.54452   4.56156   4.56986
 Alpha virt. eigenvalues --    4.65855   4.66556   4.67262   4.69463   4.85988
 Alpha virt. eigenvalues --    4.88905   4.88938   4.92652  47.47877
          Condensed to atoms (all electrons):
 Mulliken charges:
               1
     1  Zn   1.019952
     2  N   -0.576209
     3  N   -0.753315
     4  N   -0.571698
     5  N   -0.752864
     6  C    0.516685
     7  C    0.016046
     8  C   -0.136051
     9  C   -0.128093
    10  C   -0.127437
    11  C   -0.142367
    12  C    0.020257
    13  C    0.509886
    14  C    0.506173
    15  C    0.022080
    16  C   -0.142467
    17  C   -0.125557
    18  C   -0.128305
    19  C   -0.137677
    20  C    0.014962
    21  C    0.518502
    22  N   -0.576209
    23  N   -0.753315
    24  N   -0.571698
    25  N   -0.752864
    26  C    0.516685
    27  C    0.016046
    28  C   -0.136051
    29  C   -0.128093
    30  C   -0.127437
    31  C   -0.142367
    32  C    0.020257
    33  C    0.509886
    34  C    0.506173
    35  C    0.022080
    36  C   -0.142467
    37  C   -0.125557
    38  C   -0.128305
    39  C   -0.137677
    40  C    0.014962
    41  C    0.518502
    42  Bq   0.000000
    43  H    0.144884
    44  H    0.127657
    45  H    0.126685
    46  H    0.144820
    47  H    0.144600
    48  H    0.127311
    49  H    0.127378
    50  H    0.144138
    51  H    0.144884
    52  H    0.127657
    53  H    0.126685
    54  H    0.144820
    55  H    0.144600
    56  H    0.127311
    57  H    0.127378
    58  H    0.144138
 Sum of Mulliken charges =  -0.00000
 Mulliken charges with hydrogens summed into heavy atoms:
               1
     1  Zn   1.019952
     2  N   -0.576209
     3  N   -0.753315
     4  N   -0.571698
     5  N   -0.752864
     6  C    0.516685
     7  C    0.016046
     8  C    0.008769
     9  C   -0.001408
    10  C    0.000220
    11  C    0.002517
    12  C    0.020257
    13  C    0.509886
    14  C    0.506173
    15  C    0.022080
    16  C    0.001671
    17  C    0.001821
    18  C   -0.000994
    19  C    0.006922
    20  C    0.014962
    21  C    0.518502
    22  N   -0.576209
    23  N   -0.753315
    24  N   -0.571698
    25  N   -0.752864
    26  C    0.516685
    27  C    0.016046
    28  C    0.008769
    29  C   -0.001408
    30  C    0.000220
    31  C    0.002517
    32  C    0.020257
    33  C    0.509886
    34  C    0.506173
    35  C    0.022080
    36  C    0.001671
    37  C    0.001821
    38  C   -0.000994
    39  C    0.006922
    40  C    0.014962
    41  C    0.518502
    42  Bq   0.000000
 Electronic spatial extent (au):  <R**2>=          21938.1369
 Charge=             -0.0000 electrons
 Dipole moment (field-independent basis, Debye):
    X=              0.0000    Y=             -0.0000    Z=              0.0000  Tot=              0.0000
 Quadrupole moment (field-independent basis, Debye-Ang):
   XX=           -219.1322   YY=           -221.4708   ZZ=           -204.4540
   XY=             18.8694   XZ=              5.7149   YZ=             -6.3518
 Traceless Quadrupole moment (field-independent basis, Debye-Ang):
   XX=             -4.1132   YY=             -6.4518   ZZ=             10.5650
   XY=             18.8694   XZ=              5.7149   YZ=             -6.3518
 Octapole moment (field-independent basis, Debye-Ang**2):
  XXX=              0.0000  YYY=              0.0000  ZZZ=              0.0000  XYY=              0.0000
  XXY=              0.0000  XXZ=              0.0000  XZZ=              0.0000  YZZ=              0.0000
  YYZ=              0.0000  XYZ=              0.0000
 Hexadecapole moment (field-independent basis, Debye-Ang**3):
 XXXX=          -7785.3211 YYYY=          -7928.9089 ZZZZ=         -12501.8776 XXXY=          -2964.5518
 XXXZ=           -875.0409 YYYX=          -3057.1406 YYYZ=           1083.9116 ZZZX=          -1013.6991
 ZZZY=            668.0971 XXYY=          -2154.6979 XXZZ=          -3409.9063 YYZZ=          -3343.4177
 XXYZ=            617.1039 YYXZ=           -438.4832 ZZXY=           -778.0764
 N-N= 5.058190881030D+03 E-N=-1.824416644210D+04  KE= 3.427698119782D+03
 No NMR shielding tensors so no spin-rotation constants.
 Leave Link  601 at Tue Jun 17 03:26:37 2025, MaxMem=  1073741824 cpu:         0.8
 (Enter /opt/g09/l9999.exe)
 1\1\ WCSS.PL-BEM-SPIRIT2\FOpt\RB3PW91\6-31G(d,p)\C32H16N8Zn1\SERGEY\17
 -Jun-2025\0\\#p opt=readopt b3pw91/6-31g**\\Title Card Required\\0,1\Z
 n,0.,0.,0.\N,-2.03769311,-2.51232688,0.89799765\N,-0.32790291,-0.98386
 526,1.68688107\N,1.23608573,0.13008184,3.16556715\N,1.35834368,1.08822
 196,0.94064\C,-1.24157593,-1.98860186,1.83111254\C,-1.25473138,-2.4196
 193,3.21573462\C,-2.00877051,-3.3855255,3.87794518\C,-1.78698767,-3.53
 647868,5.2399919\C,-0.84442315,-2.76084144,5.92101526\C,-0.08119804,-1
 .79978904,5.25629633\C,-0.30388296,-1.64640896,3.88923286\C,0.27764123
 ,-0.7474852,2.89466283\C,1.73731327,0.9610524,2.25502763\C,2.80459425,
 1.91530948,2.5309487\C,3.56252764,2.19100532,3.66975019\C,4.53902466,3
 .17341444,3.56941526\C,4.75578277,3.86799322,2.37919211\C,4.00170418,3
 .60443188,1.24039061\C,3.02889807,2.61328592,1.33445461\C,2.09790491,2
 .07548488,0.35869739\N,2.03769311,2.51232688,-0.89799765\N,0.32790291,
 0.98386526,-1.68688107\N,-1.23608573,-0.13008184,-3.16556715\N,-1.3583
 4368,-1.08822196,-0.94064\C,1.24157593,1.98860186,-1.83111254\C,1.2547
 3138,2.4196193,-3.21573462\C,2.00877051,3.3855255,-3.87794518\C,1.7869
 8767,3.53647868,-5.2399919\C,0.84442315,2.76084144,-5.92101526\C,0.081
 19804,1.79978904,-5.25629633\C,0.30388296,1.64640896,-3.88923286\C,-0.
 27764123,0.7474852,-2.89466283\C,-1.73731327,-0.9610524,-2.25502763\C,
 -2.80459425,-1.91530948,-2.5309487\C,-3.56252764,-2.19100532,-3.669750
 19\C,-4.53902466,-3.17341444,-3.56941526\C,-4.75578277,-3.86799322,-2.
 37919211\C,-4.00170418,-3.60443188,-1.24039061\C,-3.02889807,-2.613285
 92,-1.33445461\C,-2.09790491,-2.07548488,-0.35869739\Bq,0.,4.8538,0.\H
 ,-0.6538078586,1.1925834477,-5.7742726815\H,0.7042868028,2.9110331973,
 -6.9878898414\H,2.3591846569,4.2756363771,-5.7945431078\H,2.7404875067
 ,3.9833280098,-3.3447803809\H,4.1621643372,4.1382714535,0.3095036013\H
 ,5.5291334881,4.6305226575,2.3436161578\H,5.1486944504,3.4081742092,4.
 4377969297\H,3.3919271533,1.6496147208,4.5947620374\H,0.6538078586,-1.
 1925834477,5.7742726815\H,-0.7042868028,-2.9110331973,6.9878898414\H,-
 2.3591846569,-4.2756363771,5.7945431078\H,-2.7404875067,-3.9833280098,
 3.3447803809\H,-4.1621643372,-4.1382714535,-0.3095036013\H,-5.52913348
 81,-4.6305226575,-2.3436161578\H,-5.1486944504,-3.4081742092,-4.437796
 9297\H,-3.3919271533,-1.6496147208,-4.5947620374\\Version=ES64L-G09Rev
 E.01\HF=-3445.7238575\RMSD=3.570e-09\RMSF=2.603e-05\Dipole=0.,0.,0.\Qu
 adrupole=-3.058091,-4.7967252,7.8548163,14.0289214,4.2488594,-4.722378
 4\PG=C01 [X(C32H16N8Zn1)]\\@


 I MET A TRAVELLER FROM AN ANTIQUE LAND
 WHO SAID... TWO VAST AND TRUNKLESS LEGS OF STONE
 STAND IN THE DESERT..... NEAR THEM,  ON THE SAND,
 HALF SUNK,  A SHATTERED VISAGE LIES,  WHOSE FROWN,
 AND WRINKLED LIP,  AND SNEER OF COLD COMMAND
 TELL THAT ITS SCULPTOR WELL THOSE PASSIONS READ
 WHICH YET SURVIVE,  STAMPED ON THESE LIFELESS THINGS
 THE HAND THAT MOCKED THEM,  AND THE HEART THAT FED-
 AND ON THE PEDESTAL THESE WORDS APPEAR 
 MY NAME IS OZYMANDIAS, KING OF KINGS--   
 LOOK ON MY WORKS YE MIGHTY AND DESPAIR. 
 NOTHING BESIDE REMAINS,  ROUND THE DECAY 
 OF THAT COLOSSAL WRECK,  BOUNDLESS AND BARE
 THE LONE AND LEVEL SANDS STRETCH FAR AWAY.
                                    SHELLEY
 Job cpu time:       0 days  1 hours  8 minutes 22.9 seconds.
 File lengths (MBytes):  RWF=    302 Int=      0 D2E=      0 Chk=     35 Scr=      1
 Normal termination of Gaussian 09 at Tue Jun 17 03:26:37 2025.
